#     Step Nr.          Time[fs]        Kin.[a.u.]          Temp[K]            Pot.[a.u.]        Cons Qty[a.u.]        UsedTime[s]
         0            0.000000         6.211135028       201.439837385      -176.388508937      -170.174846223         0.000000000
         1            0.500000         6.424889780       208.372342011      -176.485739225      -170.180414489         4.517474340
         2            1.000000         6.737200809       218.501228716      -176.726862787      -170.189198387         0.695788939
         3            1.500000         7.062737149       229.059039335      -176.990079864      -170.192403797         0.629207306
         4            2.000000         7.404211577       240.133754809      -177.225997407      -170.189899178         0.687856935
         5            2.500000         7.679027090       249.046585065      -177.467299941      -170.188144586         0.768663533
         6            3.000000         8.034187170       260.565154293      -177.731667382      -170.193231781         0.835523244
         7            3.500000         8.306409480       269.393881680      -177.944492488      -170.201349645         0.726239355
         8            4.000000         8.423355316       273.186674781      -177.979896328      -170.204798580         0.729033628
         9            4.500000         8.218461931       266.541562428      -177.784305238      -170.199567357         0.812705208
        10            5.000000         7.914708401       256.690212965      -177.429530717      -170.191448960         0.660589680
        11            5.500000         7.603245129       246.588820778      -177.039932642      -170.187361564         0.736445451
        12            6.000000         7.307963655       237.012237476      -176.682664976      -170.188308714         0.703401297
        13            6.500000         7.036487609       228.207712953      -176.349189321      -170.188992480         0.798298612
        14            7.000000         6.860092760       222.486866515      -176.031207031      -170.184146669         0.786279343
        15            7.500000         6.745498279       218.770332670      -175.803815741      -170.175897984         0.801401505
        16            8.000000         6.846493587       222.045817466      -175.789726553      -170.172008935         0.778829044
        17            8.500000         7.177379723       232.777132958      -176.048376887      -170.177733035         0.711006558
        18            9.000000         7.673861862       248.879066134      -176.496015978      -170.187666242         0.803176850
        19            9.500000         8.153994554       264.450753278      -176.974186183      -170.194021802         0.733176019
        20           10.000000         8.595936578       278.783838796      -177.374615925      -170.193499488         0.755044524
        21           10.500000         8.952697071       290.354312680      -177.691879975      -170.191789433         0.792444298
        22           11.000000         9.247768065       299.924069708      -177.942412802      -170.194416254         0.763779281
        23           11.500000         9.443255219       306.264118714      -178.083313450      -170.200168307         0.764345309
        24           12.000000         9.378746101       304.171955814      -178.027772356      -170.201908136         0.813402476
        25           12.500000         9.089473374       294.790248466      -177.750661874      -170.195386329         0.783592269
        26           13.000000         8.759729325       284.095973227      -177.353616530      -170.185186027         0.703245590
        27           13.500000         8.435468410       273.579527245      -176.993524935      -170.179991921         0.809516611
        28           14.000000         8.231421009       266.961851879      -176.756727188      -170.182243428         0.744971860
        29           14.500000         8.124308410       263.487970786      -176.612255502      -170.186719723         0.782328309
        30           15.000000         8.106396173       262.907040249      -176.496518107      -170.185508242         0.751347689
        31           15.500000         8.099076570       262.669650520      -176.421774818      -170.179379465         0.834899545
        32           16.000000         8.213501760       266.380693900      -176.471086141      -170.176142168         0.913257817
        33           16.500000         8.445526790       273.905741117      -176.694173633      -170.180478738         0.999098405
        34           17.000000         8.828667156       286.331768362      -177.027307692      -170.189223238         0.788892195
        35           17.500000         9.120746336       295.804494718      -177.341357814      -170.194507862         0.787761630
        36           18.000000         9.369174215       303.861519951      -177.559173926      -170.193319516         0.818356693
        37           18.500000         9.516317953       308.633692902      -177.700546797      -170.190031566         0.750356738
        38           19.000000         9.653342487       313.077679334      -177.808508001      -170.192249394         0.792364232
        39           19.500000         9.664032637       313.424382829      -177.846067268      -170.199074174         0.807965644
        40           20.000000         9.498092359       308.042599529      -177.712847493      -170.202085429         0.831545833
        41           20.500000         9.126970824       296.006367621      -177.360699220      -170.196819871         0.814433418
        42           21.000000         8.664850718       281.018865563      -176.865885279      -170.186398131         0.713637382
        43           21.500000         8.170666002       264.991442513      -176.384671554      -170.178725806         0.758786088
        44           22.000000         7.896234765       256.091075095      -176.035681999      -170.178567238         0.694542477
        45           22.500000         7.808507124       253.245887907      -175.829630578      -170.181927422         0.829410661
        46           23.000000         7.813084664       253.394346923      -175.730262545      -170.182212148         0.821690664
        47           23.500000         7.878525816       255.516737586      -175.740924428      -170.178483898         0.727816204
        48           24.000000         8.114233615       263.161224537      -175.917852112      -170.176739125         0.685783600
        49           24.500000         8.476731619       274.917777686      -176.283011321      -170.182349068         0.771156818
        50           25.000000         8.938955913       289.908658773      -176.751105178      -170.192603719         0.760344544
        51           25.500000         9.336827354       302.812444953      -177.165592885      -170.199088464         0.802080031
        52           26.000000         9.573133244       310.476329213      -177.419925066      -170.197789534         0.777861785
        53           26.500000         9.669778123       313.610720690      -177.523153023      -170.192538423         0.844248468
        54           27.000000         9.671401057       313.663355786      -177.539798530      -170.190979950         0.827276798
        55           27.500000         9.634011727       312.450743183      -177.487198000      -170.194233058         0.800647968
        56           28.000000         9.457056836       306.711733428      -177.317921115      -170.196671033         0.774888210
        57           28.500000         9.188941401       298.016200438      -176.999638133      -170.192205813         0.849789254
        58           29.000000         8.818198231       285.992239657      -176.597840182      -170.183090954         0.760174628
        59           29.500000         8.531032115       276.678854055      -176.247698834      -170.176749305         0.696306532
        60           30.000000         8.386624003       271.995403031      -176.044909126      -170.177307158         0.816458391
        61           30.500000         8.313683453       269.629791515      -175.979576867      -170.181259100         0.740779219
        62           31.000000         8.435224352       273.571611960      -175.988844198      -170.182082525         0.765475275
        63           31.500000         8.532662538       276.731732013      -176.056131227      -170.178680318         0.804679753
        64           32.000000         8.683769831       281.632451168      -176.226687405      -170.176535961         0.722221293
        65           32.500000         9.049976171       293.509273251      -176.527425967      -170.181306156         0.839077514
        66           33.000000         9.362442307       303.643190353      -176.885184213      -170.191023191         0.792329483
        67           33.500000         9.615928435       311.864264951      -177.162131071      -170.197620194         0.725668741
        68           34.000000         9.767539173       316.781311904      -177.268530759      -170.196746548         0.754530448
        69           34.500000         9.689327951       314.244761698      -177.224782359      -170.191945209         0.783910783
        70           35.000000         9.556651959       309.941807371      -177.108492931      -170.190171953         0.810436800
        71           35.500000         9.428929557       305.799508127      -176.949204172      -170.193080851         0.841901414
        72           36.000000         9.149057536       296.722684944      -176.704834354      -170.195196505         0.814954892
        73           36.500000         8.824413462       286.193812354      -176.348003842      -170.191036888         0.672472419
        74           37.000000         8.466619137       274.589809163      -175.937820822      -170.182637201         0.761219190
        75           37.500000         8.179623624       265.281956550      -175.599856264      -170.176704617         0.788405774
        76           38.000000         8.080530953       262.068178163      -175.427036587      -170.177253288         0.808141854
        77           38.500000         8.097230701       262.609785191      -175.413603417      -170.182081510         0.765519401
        78           39.000000         8.214299053       266.406551754      -175.496197193      -170.184374356         0.816066522
        79           39.500000         8.409011675       272.721481119      -175.646914601      -170.181861900         0.766673138
        80           40.000000         8.721109410       282.843450226      -175.897130589      -170.180172323         0.690818401
        81           40.500000         9.096116973       295.005713992      -176.268095757      -170.184212891         0.946197696
        82           41.000000         9.478822562       307.417640522      -176.695839036      -170.193127570         0.764819229
        83           41.500000         9.756767910       316.431977753      -177.040175601      -170.199548329         0.771242512
        84           42.000000         9.921326092       321.768936825      -177.197924153      -170.197942143         0.669481577
        85           42.500000         9.828373400       318.754290530      -177.176442540      -170.191995281         1.029677756
        86           43.000000         9.672747440       313.707021743      -177.054392442      -170.187772785         0.789730426
        87           43.500000         9.548376142       309.673405668      -176.888361575      -170.188511917         0.755583981
        88           44.000000         9.290133498       301.298067500      -176.667948300      -170.189794350         0.774504242
        89           44.500000         9.062193270       293.905498806      -176.378436248      -170.186112524         0.728502747
        90           45.000000         8.770328904       284.439739285      -176.075356834      -170.178476387         0.701447308
        91           45.500000         8.585544460       278.446801108      -175.871839657      -170.173356563         0.742824374
        92           46.000000         8.602674198       279.002353618      -175.842789409      -170.175576375         0.811031956
        93           46.500000         8.707358197       282.397470236      -175.956040458      -170.181513248         0.715956561
        94           47.000000         8.904684920       288.797180228      -176.117553386      -170.184634679         0.837462373
        95           47.500000         9.058536450       293.786900649      -176.273246055      -170.182546644         0.721596463
        96           48.000000         9.246587529       299.885782491      -176.449523147      -170.179465106         0.755505066
        97           48.500000         9.424415307       305.653101764      -176.685529453      -170.181426278         0.831647636
        98           49.000000         9.624875271       312.154429202      -176.941816089      -170.188544054         0.684492517
        99           49.500000         9.719920518       315.236941338      -177.110319668      -170.193874524         0.672552014
       100           50.000000         9.702321469       314.666168098      -177.112779640      -170.193140368         0.776181899
       101           50.500000         9.551260367       309.766946999      -176.967799707      -170.187509202         0.765666530
       102           51.000000         9.405238011       305.031142753      -176.755589834      -170.184206581         0.730705688
       103           51.500000         9.173326779       297.509786256      -176.524815264      -170.184809221         0.759933574
       104           52.000000         8.903679970       288.764587632      -176.259111648      -170.185725065         0.836783592
       105           52.500000         8.569361913       277.921967929      -175.940807616      -170.181866859         0.716842102
       106           53.000000         8.270656697       268.234345658      -175.625158922      -170.173802120         0.689342177
       107           53.500000         8.115109964       263.189646354      -175.425504039      -170.168188935         0.745734641
       108           54.000000         8.166754867       264.864596378      -175.423252636      -170.169862482         0.717764512
       109           54.500000         8.354901667       270.966582682      -175.594007989      -170.177091922         0.878481492
       110           55.000000         8.630058291       279.890475867      -175.835088149      -170.182291720         0.749535032
       111           55.500000         8.884321196       288.136742927      -176.067095400      -170.182165539         0.736995323
       112           56.000000         9.128310278       296.049808867      -176.290601247      -170.180604431         0.747943990
       113           56.500000         9.330425175       302.604809176      -176.536610678      -170.182062843         0.816053279
       114           57.000000         9.538834197       309.363940840      -176.783458747      -170.188100646         0.805436809
       115           57.500000         9.662349184       313.369784993      -176.941377369      -170.192690143         0.796751665
       116           58.000000         9.619951735       311.994748843      -176.937137679      -170.191556816         0.741491050
       117           58.500000         9.493181183       307.883320053      -176.789661392      -170.185345124         0.699095136
       118           59.000000         9.313770085       302.064650461      -176.591072786      -170.180574455         0.690584816
       119           59.500000         9.179713280       297.716913566      -176.409217815      -170.181662268         0.825149024
       120           60.000000         9.039815574       293.179744251      -176.230672832      -170.185252556         0.833189398
       121           60.500000         8.831221709       286.414617750      -176.012124132      -170.184147208         0.765317824
       122           61.000000         8.616316786       279.444810689      -175.776457350      -170.177722501         0.795464410
       123           61.500000         8.480756778       275.048321817      -175.624185299      -170.172150014         0.755064186
       124           62.000000         8.516970559       276.222808969      -175.643524298      -170.172838109         0.783970449
       125           62.500000         8.690390889       281.847185657      -175.821624667      -170.179647630         0.780180667
       126           63.000000         8.927777906       289.546133100      -176.055298126      -170.185320024         0.768318305
       127           63.500000         9.089570684       294.793404447      -176.256857858      -170.185152509         0.799654547
       128           64.000000         9.279137341       300.941439600      -176.421035052      -170.182655761         0.735577822
       129           64.500000         9.369043064       303.857266436      -176.579907086      -170.183990545         0.759544007
       130           65.000000         9.465020660       306.970016571      -176.713924032      -170.189271734         0.859079435
       131           65.500000         9.450607940       306.502582533      -176.741788464      -170.193851690         0.778038185
       132           66.000000         9.242148669       299.741821169      -176.599733878      -170.191637065         0.685986793
       133           66.500000         9.003966427       292.017082967      -176.323937055      -170.184031175         0.811595924
       134           67.000000         8.715509494       282.661833505      -176.028312545      -170.178251602         0.761415953
       135           67.500000         8.512209304       276.068391718      -175.800797824      -170.178547329         0.774032556
       136           68.000000         8.349960926       270.806344327      -175.635409682      -170.182067932         0.632744346
       137           68.500000         8.276612999       268.427520744      -175.478279683      -170.182253114         0.815723145
       138           69.000000         8.163480535       264.758403073      -175.323238108      -170.176567756         0.831370482
       139           69.500000         8.133456276       263.784654818      -175.244717324      -170.171356313         0.793677812
       140           70.000000         8.274360881       268.354479937      -175.319890613      -170.172123962         0.756223846
       141           70.500000         8.541028958       277.003072147      -175.538270584      -170.178553308         0.770690272
       142           71.000000         8.820753265       286.075104644      -175.802753330      -170.184528529         0.729664229
       143           71.500000         9.070664926       294.180251969      -176.025337490      -170.185241835         0.753617879
       144           72.000000         9.306296130       301.822254783      -176.199666232      -170.182253422         0.831282347
       145           72.500000         9.476327062       307.336706341      -176.373671832      -170.181941762         0.766938034
       146           73.000000         9.592275810       311.097161866      -176.552108235      -170.187172648         0.825448884
       147           73.500000         9.671628631       313.670736476      -176.658137314      -170.192832245         0.671303099
       148           74.000000         9.585195988       310.867548731      -176.608345092      -170.192463482         0.759568030
       149           74.500000         9.389962882       304.535739010      -176.407524243      -170.185091807         0.804142993
       150           75.000000         9.192476443       298.130849081      -176.160615785      -170.177774239         0.746468848
       151           75.500000         9.003629356       292.006151057      -175.973355159      -170.176529836         0.811594196
       152           76.000000         8.862766110       287.437667324      -175.864811620      -170.180455853         0.848806214
       153           76.500000         8.759202540       284.078888511      -175.780169619      -170.182874406         0.827705428
       154           77.000000         8.726865432       283.030129844      -175.689835109      -170.179406097         0.719465049
       155           77.500000         8.762072182       284.171956876      -175.645254047      -170.174355638         0.775120920
       156           78.000000         8.871870035       287.732926263      -175.722204843      -170.174455358         0.704068309
       157           78.500000         9.037608427       293.108161972      -175.919256091      -170.180840100         0.764440982
       158           79.000000         9.251464760       300.043961079      -176.141602954      -170.187171945         0.668748029
       159           79.500000         9.380067868       304.214823414      -176.290726133      -170.187421115         0.813628150
       160           80.000000         9.440548052       306.176319729      -176.355569718      -170.183081283         0.803546097
       161           80.500000         9.417959520       305.443727360      -176.394912173      -170.180857703         0.747755866
       162           81.000000         9.377426097       304.129145369      -176.440123180      -170.184514871         0.698879145
       163           81.500000         9.304521703       301.764706468      -176.436750360      -170.190558420         0.725531144
       164           82.000000         9.178679406       297.683382900      -176.302611604      -170.191376147         0.777295364
       165           82.500000         8.923228630       289.398590737      -176.031123735      -170.184947072         0.800433448
       166           83.000000         8.609425276       279.221304904      -175.721627182      -170.176860947         0.886176227
       167           83.500000         8.419642872       273.066272620      -175.492307546      -170.174668933         0.841034865
       168           84.000000         8.311681991       269.564880023      -175.374696364      -170.177869061         0.775333414
       169           84.500000         8.229754916       266.907817073      -175.320572883      -170.180344665         0.739430161
       170           85.000000         8.187359501       265.532846881      -175.289599955      -170.178238857         0.837669337
       171           85.500000         8.224008607       266.721452501      -175.310447483      -170.173699948         0.844092743
       172           86.000000         8.374307330       271.595948073      -175.446748427      -170.173663256         0.787686378
       173           86.500000         8.639596061       280.199805298      -175.698854997      -170.179974201         0.784746533
       174           87.000000         8.966833007       290.812770036      -175.973016957      -170.187766347         0.807330174
       175           87.500000         9.122404825       295.858282905      -176.158101977      -170.189523175         0.863197416
       176           88.000000         9.194186201       298.186300053      -176.229109436      -170.185229052         0.817550985
       177           88.500000         9.198123267       298.313987147      -176.253317450      -170.180831957         0.840620650
       178           89.000000         9.228140843       299.287518656      -176.297801904      -170.182304433         0.865300909
       179           89.500000         9.204044299       298.506018370      -176.345335618      -170.187566598         0.766612086
       180           90.000000         9.178971026       297.692840738      -176.318401271      -170.189843283         0.762345588
       181           90.500000         9.058845871       293.796935788      -176.179179998      -170.185425257         0.814702738
       182           91.000000         8.880432768       288.010633252      -175.987338452      -170.178338744         0.825836373
       183           91.500000         8.756100258       283.978275141      -175.842494116      -170.175444401         0.808714451
       184           92.000000         8.723512033       282.921372218      -175.782864174      -170.179157239         0.829561166
       185           92.500000         8.763809122       284.228289396      -175.760384480      -170.183247195         0.782024657
       186           93.000000         8.742633170       283.541509889      -175.725753688      -170.181867044         0.743791047
       187           93.500000         8.786986448       284.979977591      -175.704379228      -170.176803488         0.695831046
       188           94.000000         8.904380993       288.787323266      -175.773725496      -170.175127843         0.775584888
       189           94.500000         9.113357460       295.564858346      -175.962604603      -170.180429942         0.737817297
       190           95.000000         9.322284593       302.340793414      -176.193517129      -170.188915403         0.747319603
       191           95.500000         9.463774874       306.929613189      -176.344195901      -170.192375900         0.779780790
       192           96.000000         9.439084835       306.128864607      -176.363225931      -170.189058778         0.791011792
       193           96.500000         9.380233443       304.220193359      -176.298060955      -170.184332621         0.754636357
       194           97.000000         9.315472708       302.119870018      -176.218557399      -170.184393254         0.723350395
       195           97.500000         9.182220849       297.798239155      -176.131239324      -170.188504585         0.696523195
       196           98.000000         9.072188560       294.229666538      -175.985323298      -170.190541151         0.729323354
       197           98.500000         8.880127835       288.000743627      -175.760399158      -170.186555485         0.836401528
       198           99.000000         8.687507714       281.753678368      -175.520633962      -170.180338887         0.701460538
       199           99.500000         8.576258872       278.145650446      -175.366401983      -170.177641386         0.670214796
       200          100.000000         8.620305234       279.574164242      -175.337071343      -170.180723471         0.820149766
       201          100.500000         8.641129064       280.249523730      -175.381789507      -170.185396777         0.750297807
       202          101.000000         8.712039679       282.549300262      -175.428535407      -170.184900026         0.748750566
       203          101.500000         8.777834007       284.683145173      -175.473897543      -170.180523204         0.717151592
       204          102.000000         8.902214133       288.717047538      -175.577004327      -170.177731942         0.790528160
       205          102.500000         9.134774910       296.259470138      -175.773836471      -170.180965075         0.728127467
       206          103.000000         9.326280765       302.470397460      -176.009845947      -170.187687742         0.704049744
       207          103.500000         9.472953593       307.227297853      -176.182149219      -170.191753405         0.741763307
       208          104.000000         9.512405995       308.506820081      -176.234838967      -170.188692813         0.746091686
       209          104.500000         9.488595602       307.734600247      -176.207829850      -170.184001441         0.792426536
       210          105.000000         9.442595534       306.242723786      -176.170332532      -170.182664707         0.761340193
       211          105.500000         9.367117652       303.794821387      -176.140842115      -170.185979318         0.787537612
       212          106.000000         9.315286256       302.113822998      -176.066987716      -170.188241829         0.742758978
       213          106.500000         9.156447233       296.962347981      -175.914650252      -170.184523777         0.694512481
       214          107.000000         8.996983802       291.790622109      -175.731411092      -170.178143865         0.693111548
       215          107.500000         8.883844961       288.121297658      -175.610906275      -170.175163540         0.774408288
       216          108.000000         8.837742989       286.626116228      -175.598425898      -170.178530554         0.826584775
       217          108.500000         8.884656333       288.147612106      -175.646263894      -170.183684357         0.760072989
       218          109.000000         8.969621495       290.903206431      -175.678531125      -170.184908487         0.798572905
       219          109.500000         8.926945302       289.519130022      -175.679858391      -170.181613306         0.683270134
       220          110.000000         8.946229187       290.144545951      -175.705145380      -170.178409468         0.806728182
       221          110.500000         9.055459461       293.687107568      -175.803297947      -170.180926228         0.862561399
       222          111.000000         9.144314515       296.568859050      -175.943869673      -170.186446798         0.804869611
       223          111.500000         9.286238287       301.171737825      -176.042702768      -170.189468011         0.753460715
       224          112.000000         9.278179831       300.910385581      -176.046393785      -170.187775575         0.840126857
       225          112.500000         9.186397639       297.933701032      -175.978631719      -170.183985141         0.760581177
       226          113.000000         9.092596072       294.891523984      -175.895868852      -170.183316747         0.710343380
       227          113.500000         9.067251485       294.069547062      -175.810935311      -170.186418554         0.849808991