 DBCSR| CPU Multiplication driver                                           XSMM
 DBCSR| Multrec recursion limit                                              512
 DBCSR| Multiplication stack size                                           1000
 DBCSR| Maximum elements for images                                    UNLIMITED
 DBCSR| Multiplicative factor virtual images                                   1
 DBCSR| Use multiplication densification                                       T
 DBCSR| Multiplication size stacks                                             3
 DBCSR| Number of 3D layers                                               SINGLE
 DBCSR| Use MPI memory allocation                                              T
 DBCSR| Use RMA algorithm                                                      F
 DBCSR| Use Communication thread                                               T
 DBCSR| Communication thread load                                             87


  **** **** ******  **  PROGRAM STARTED AT               2020-10-20 08:33:42.820
 ***** ** ***  *** **   PROGRAM STARTED ON                              nid00024
 **    ****   ******    PROGRAM STARTED BY                               ta003js
 ***** **    ** ** **   PROGRAM PROCESS ID                                 36363
  **** **  *******  **  PROGRAM STARTED IN /fs2/ta003/ta003/ta003js/practical_in
                                           troduction_to_cp2k/session_4/exercise
                                           s/3_monitorisation_qmmm

 CP2K| version string:                                          CP2K version 7.1
 CP2K| source code revision number:                                  git:e635599
 CP2K| cp2kflags: libint fftw3 libxc elpa parallel mpi3 scalapack xsmm max_contr
 CP2K|            =4 statm_resident plumed2
 CP2K| is freely available from                            https://www.cp2k.org/
 CP2K| Program compiled at                          Mon Mar 16 10:22:01 GMT 2020
 CP2K| Program compiled on                                            eslogin003
 CP2K| Program compiled for                                               ARCHER
 CP2K| Data directory path                      /work/y07/y07/cp2k/cp2k-7.1/data
 CP2K| Input file name                                                  inp.cp2k

 GLOBAL| Force Environment number                                              1
 GLOBAL| Basis set file name                                           BASIS_SET
 GLOBAL| Potential file name                                           POTENTIAL
 GLOBAL| MM Potential file name                                     MM_POTENTIAL
 GLOBAL| Coordinate file name                                      system.md.crd
 GLOBAL| Method name                                                        CP2K
 GLOBAL| Project name                                                       QMMM
 GLOBAL| Preferred FFT library                                             FFTW3
 GLOBAL| Preferred diagonalization lib.                                     ELPA
 GLOBAL| Run type                                                             MD
 GLOBAL| All-to-all communication in single precision                          F
 GLOBAL| FFTs using library dependent lengths                                  F
 GLOBAL| Global print level                                                  LOW
 GLOBAL| MPI I/O enabled                                                       T
 GLOBAL| Total number of message passing processes                            24
 GLOBAL| Number of threads for this process                                    1
 GLOBAL| This output is from process                                           0
 GLOBAL| CPU model name                Intel(R) Xeon(R) CPU E5-2697 v2 @ 2.70GHz
 GLOBAL| CPUID                                                              1001

 MEMORY| system memory details [Kb]
 MEMORY|                        rank 0           min           max       average
 MEMORY| MemTotal             66072152      66072152      66072152      66072152
 MEMORY| MemFree              62405188      62405188      62405188      62405188
 MEMORY| Buffers                     0             0             0             0
 MEMORY| Cached                 200928        200928        200928        200928
 MEMORY| Slab                   260636        260636        260636        260636
 MEMORY| SReclaimable             7708          7708          7708          7708
 MEMORY| MemLikelyFree        62613824      62613824      62613824      62613824



                      ************* ******** ***********   
                     ************* **********************  
                     ****     **** ****      ***********   
                     ******** ****  *******     ****       
                     *******  ****   *******   ****        
                     ****     ****       ****  ****        
                     ****     **** **********  ****        
                      ****     **** ********    ****       
                     FRONTIERS IN SIMULATION TECHNOLOGY    
                                                           
                        C.J. Mundy, S. Balasubramanian,    
                     Ken Bagchi, J. Hutter, Ari Seitsonen  
                      IFW Kuo, T. Laino, J. VandeVondele   
                                 Version 1.0               

                                                           


 EWALD| Summation is done by:                                               SPME
 EWALD| Alpha parameter [       ANGSTROM^-1]                              0.4000
 EWALD| Real Space Cutoff [          ANGSTROM]                            8.4348
 EWALD| G-space max. Miller index                         80        80        80
 EWALD| Spline interpolation order                                             6

 *** WARNING in topology_amber.F:262 :: BOX information found in CRD file. ***
 *** They will be ignored.Please provide the BOX information directly from ***
 *** the main CP2K input!                                                  ***


 FORCEFIELD| WARNING: A non Critical ForceField parameter is missing! CP2K GOES!
 FORCEFIELD| Non critical parameters are:Urey-Bradley,Torsions,Impropers, Opbends and 1-4
 FORCEFIELD| All missing parameters will not contribute to the potential energy!
 FORCEFIELD| Activate the print key FF_INFO to have a list of missing parameters

 CHARGE_INFO| Total Charge of the Classical System:                     0.941000

 SPLINE_INFO| Generating 33670 splines for NONBONDED14 interactions 
              Due to 259 different atomic kinds
  ...3367  ...6734  ...10101  ...13468  ...16835  ...20202  ...23569  ...26936  ...30303  ...33670
 SPLINE_INFO| Number of unique splines computed:            291
 SPLINE_INFO| Done

 SPLINE_INFO| Generating 33670 splines for NONBONDED interactions 
              Due to 259 different atomic kinds
  ...3367  ...6734  ...10101  ...13468  ...16835  ...20202  ...23569  ...26936  ...30303  ...33670
 SPLINE_INFO| Number of unique splines computed:            291
 SPLINE_INFO| Done


              #####   #####        # #     # ######  ######   #####  
             #     # #     #      #  ##    # #     # #     # #     # 
             #     # #           #   # #   # #     # #     # #     # 
             #     #  #####     #    #  #  # #     # #     # #     # 
             #   # #       #   #     #   # # #     # #     # #     # 
             #    #  #     #  #      #    ## #     # #     # #     # 
              #### #  #####  #       #     # ######  ######   #####  
                                                                     
                              T. Laino and J. Hutter                 
                                                                     
                                   2008 - 2015                       


 SEMIEMPIRICAL|                             Coulomb Integral cutoff/taper values
 SEMIEMPIRICAL| Cutoff [a.u.]                                             18.897
 SEMIEMPIRICAL| Taper  [a.u.]                                             18.897
 SEMIEMPIRICAL| Range  [a.u.]                                              0.000


 SEMIEMPIRICAL|                            Exchange Integral cutoff/taper values
 SEMIEMPIRICAL| Cutoff [a.u.]                                             18.897
 SEMIEMPIRICAL| Taper  [a.u.]                                             18.897
 SEMIEMPIRICAL| Range  [a.u.]                                              0.000



 TOTAL NUMBERS AND MAXIMUM NUMBERS

  Total number of            - Atomic kinds:                                   7
                             - Atoms:                                         22
                             - Shell sets:                                    39
                             - Shells:                                        39
                             - Primitive Cartesian functions:                234
                             - Cartesian basis functions:                     73
                             - Spherical basis functions:                     73

  Maximum angular momentum of the orbital basis functions:                     1


 SCF PARAMETERS         Density guess:                                    ATOMIC
                        --------------------------------------------------------
                        max_scf:                                            2000
                        max_scf_history:                                       0
                        max_diis:                                              4
                        --------------------------------------------------------
                        eps_scf:                                        1.00E-06
                        eps_scf_history:                                0.00E+00
                        eps_diis:                                       1.00E-01
                        eps_eigval:                                     1.00E-05
                        --------------------------------------------------------
                        level_shift [a.u.]:                                 0.00
                        --------------------------------------------------------
                        Outer loop SCF in use 
                        No variables optimised in outer loop
                        eps_scf                                         1.00E-06
                        max_scf                                              100
                        No outer loop optimization
                        step_size                                       5.00E-01

 *******************************************************************************
 *******************************************************************************
 **                                                                           **
 **             #######  ##     ## ##     ## ##     ##                        **
 **            ##     ## ###   ### ###   ### ###   ###                        **
 **            ##     ## #### #### #### #### #### ####                        **
 **            ##     ## ## ### ## ## ### ## ## ### ##                        **
 **            ##  ## ## ##     ## ##     ## ##     ##                        **
 **            ##    ##  ##     ## ##     ## ##     ##  T.Laino and F.Mohamed **
 **             ##### ## ##     ## ##     ## ##     ##  2005 - 2015           **
 **                                                                           **
 **                                                     Calculation Started.. **
 *******************************************************************************
 *******************************************************************************

 MD| Molecular Dynamics Protocol 
 MD| Ensemble Type                                                         NPT_I
 MD| Number of Time Steps                                                    200
 MD| Time Step [fs]                                                         0.50
 MD| Temperature [K]                                                      298.00
 MD| Temperature tolerance [K]                                              0.00
 MD| Pressure [Bar]                                                         1.00
 MD| Barostat time constant [  fs]                                        100.00
 MD| Print MD information every                                        1 step(s)
 MD| File type     Print frequency[steps]                             File names
 MD| Coordinates            4                                     QMMM-pos-1.xyz
 MD| Simulation Cel       100                                        QMMM-1.cell
 MD| Velocities             1                                     QMMM-vel-1.xyz
 MD| Energies               1                                        QMMM-1.ener
 MD| Dump               25000                                     QMMM-1.restart

 ROT| Rotational Analysis Info 
 ROT| Principal axes and moments of inertia in atomic units:
 ROT|                                1                 2                 3
 ROT| EIGENVALUES            0.559292237E+13   0.569832025E+13   0.635995010E+13
 ROT|      X                     0.158672252       0.987117079      -0.020566694
 ROT|      Y                    -0.987331116       0.158624707      -0.003933259
 ROT|      Z                    -0.000620201       0.020930236       0.999780746
 ROT| Number of Rotovibrational vectors:     6

 Calculation of degrees of freedom
                                                      Number of atoms:     92016
                                 Number of Intramolecular constraints:         0
                                 Number of Intermolecular constraints:         0
                                  Invariants(translation + rotations):         3
                                                   Degrees of freedom:    276045


 Restraints Information
                                  Number of Intramolecular restraints:         0
                                  Number of Intermolecular restraints:         0

 THERMOSTAT| Thermostat Info for PARTICLES
 THERMOSTAT| Type of thermostat            Canonical Sampling/Velocity Rescaling
 THERMOSTAT| CSVR time constant [  fs]                                     10.00
 THERMOSTAT| Initial Kinetic Energy                                     0.000000
 THERMOSTAT| End of Thermostat Info for PARTICLES


 THERMOSTAT| Thermostat Info for BAROSTAT
 THERMOSTAT| Type of thermostat            Canonical Sampling/Velocity Rescaling
 THERMOSTAT| CSVR time constant [  fs]                                     10.00
 THERMOSTAT| Initial Kinetic Energy                                     0.000000
 THERMOSTAT| End of Thermostat Info for BAROSTAT

 ************************** Velocities initialization **************************
 Initial Temperature                                                    205.29 K
 COM velocity:           -0.000001494050     -0.000000002595     -0.000000551741
 *******************************************************************************


  Translating the system in order to center the QM fragment in the QM box.

 Number of electrons:                                                         96
 Number of occupied orbitals:                                                 48
 Number of molecular orbitals:                                                48

 Number of orbital functions:                                                 73
 Number of independent orbital functions:                                     73

 Extrapolation method: initial_guess


 SCF WAVEFUNCTION OPTIMIZATION

  ----------------------------------- OT ---------------------------------------
  Minimizer      : DIIS                : direct inversion
                                         in the iterative subspace
                                         using   7 DIIS vectors
                                         safer DIIS on
  Preconditioner : FULL_SINGLE_INVERSE : inversion of 
                                         H + eS - 2*(Sc)(c^T*H*c+const)(Sc)^T
  Precond_solver : DEFAULT
  stepsize       :    0.08000000                  energy_gap     :    0.08000000
  eps_taylor     :   0.10000E-15                  max_taylor     :             4
  ----------------------------------- OT ---------------------------------------

  Step     Update method      Time    Convergence         Total energy    Change
  ------------------------------------------------------------------------------
     1 OT DIIS     0.80E-01    0.0     0.18715639      -136.8135596115 -1.37E+02
     2 OT DIIS     0.80E-01    0.0     0.11819679      -142.3585584332 -5.54E+00
     3 OT DIIS     0.80E-01    0.0     0.08574965      -144.4027105905 -2.04E+00
     4 OT DIIS     0.80E-01    0.0     0.06661551      -146.2182304563 -1.82E+00
     5 OT DIIS     0.80E-01    0.0     0.05515467      -147.7175048183 -1.50E+00
     6 OT DIIS     0.80E-01    0.0     0.04720928      -149.0190805318 -1.30E+00
     7 OT DIIS     0.80E-01    0.0     0.03833163      -150.1801528254 -1.16E+00
     8 OT DIIS     0.80E-01    0.0     0.04051940      -150.5503970323 -3.70E-01
     9 OT DIIS     0.80E-01    0.0     0.03297826      -151.3102868895 -7.60E-01
    10 OT DIIS     0.80E-01    0.0     0.02720254      -152.0653882977 -7.55E-01
    11 OT DIIS     0.80E-01    0.0     0.02290441      -152.6082611024 -5.43E-01
    12 OT DIIS     0.80E-01    0.0     0.01988731      -152.9577076651 -3.49E-01
    13 OT DIIS     0.80E-01    0.0     0.01578511      -153.3282631717 -3.71E-01
    14 OT DIIS     0.80E-01    0.0     0.01844724      -153.3416278477 -1.34E-02
    15 OT DIIS     0.80E-01    0.0     0.01634922      -153.4730150859 -1.31E-01
    16 OT DIIS     0.80E-01    0.0     0.01273171      -153.6940638831 -2.21E-01
    17 OT DIIS     0.80E-01    0.0     0.01039537      -153.8433756677 -1.49E-01
    18 OT DIIS     0.80E-01    0.0     0.00908904      -153.9548422045 -1.11E-01
    19 OT DIIS     0.80E-01    0.0     0.00805295      -154.0514309101 -9.66E-02
    20 OT DIIS     0.80E-01    0.0     0.00748760      -154.1024106740 -5.10E-02
    21 OT DIIS     0.80E-01    0.0     0.00673658      -154.1698871722 -6.75E-02
    22 OT DIIS     0.80E-01    0.0     0.00576843      -154.2326934672 -6.28E-02
    23 OT DIIS     0.80E-01    0.0     0.00483191      -154.2836524126 -5.10E-02
    24 OT DIIS     0.80E-01    0.0     0.00471577      -154.2909553959 -7.30E-03
    25 OT DIIS     0.80E-01    0.0     0.00373720      -154.3186601860 -2.77E-02
    26 OT DIIS     0.80E-01    0.0     0.00319263      -154.3352965763 -1.66E-02
    27 OT DIIS     0.80E-01    0.0     0.00274180      -154.3484044523 -1.31E-02
    28 OT DIIS     0.80E-01    0.0     0.00251923      -154.3578058159 -9.40E-03
    29 OT DIIS     0.80E-01    0.0     0.00216379      -154.3659759272 -8.17E-03
    30 OT DIIS     0.80E-01    0.0     0.00195796      -154.3725458142 -6.57E-03
    31 OT DIIS     0.80E-01    0.0     0.00181818      -154.3771572792 -4.61E-03
    32 OT DIIS     0.80E-01    0.0     0.00168215      -154.3822419215 -5.08E-03
    33 OT DIIS     0.80E-01    0.0     0.00153844      -154.3869544182 -4.71E-03
    34 OT DIIS     0.80E-01    0.0     0.00143320      -154.3910091746 -4.05E-03
    35 OT DIIS     0.80E-01    0.0     0.00134946      -154.3943736141 -3.36E-03
    36 OT DIIS     0.80E-01    0.0     0.00124893      -154.3980543350 -3.68E-03
    37 OT DIIS     0.80E-01    0.0     0.00117151      -154.4012541148 -3.20E-03
    38 OT DIIS     0.80E-01    0.0     0.00110527      -154.4042341261 -2.98E-03
    39 OT DIIS     0.80E-01    0.0     0.00105440      -154.4066745827 -2.44E-03
    40 OT DIIS     0.80E-01    0.0     0.00099706      -154.4096520836 -2.98E-03
    41 OT DIIS     0.80E-01    0.0     0.00095399      -154.4121864758 -2.53E-03
    42 OT DIIS     0.80E-01    0.0     0.00092898      -154.4138549536 -1.67E-03
    43 OT DIIS     0.80E-01    0.0     0.00090205      -154.4156060365 -1.75E-03
    44 OT DIIS     0.80E-01    0.0     0.00087540      -154.4179988499 -2.39E-03
    45 OT DIIS     0.80E-01    0.0     0.00085340      -154.4198572146 -1.86E-03
    46 OT DIIS     0.80E-01    0.0     0.00083362      -154.4216297915 -1.77E-03
    47 OT DIIS     0.80E-01    0.0     0.00081471      -154.4238648724 -2.24E-03
    48 OT DIIS     0.80E-01    0.0     0.00079778      -154.4254867647 -1.62E-03
    49 OT DIIS     0.80E-01    0.0     0.00078479      -154.4270161130 -1.53E-03
    50 OT DIIS     0.80E-01    0.0     0.00076470      -154.4287620809 -1.75E-03
    51 OT DIIS     0.80E-01    0.0     0.00074435      -154.4315097058 -2.75E-03
    52 OT DIIS     0.80E-01    0.0     0.00072492      -154.4330339568 -1.52E-03
    53 OT DIIS     0.80E-01    0.0     0.00070100      -154.4350059409 -1.97E-03
    54 OT DIIS     0.80E-01    0.0     0.00067501      -154.4380527714 -3.05E-03
    55 OT DIIS     0.80E-01    0.0     0.00066289      -154.4393773011 -1.32E-03
    56 OT DIIS     0.80E-01    0.0     0.00063995      -154.4401756323 -7.98E-04
    57 OT DIIS     0.80E-01    0.0     0.00063583      -154.4424336785 -2.26E-03
    58 OT DIIS     0.80E-01    0.0     0.00061645      -154.4444567735 -2.02E-03
    59 OT DIIS     0.80E-01    0.0     0.00057430      -154.4454640157 -1.01E-03
    60 OT DIIS     0.80E-01    0.0     0.00057997      -154.4475236764 -2.06E-03
    61 OT DIIS     0.80E-01    0.0     0.00052990      -154.4489956578 -1.47E-03
    62 OT DIIS     0.80E-01    0.0     0.00051090      -154.4497594096 -7.64E-04
    63 OT DIIS     0.80E-01    0.0     0.00049166      -154.4503469121 -5.88E-04
    64 OT DIIS     0.80E-01    0.0     0.00048190      -154.4511929149 -8.46E-04
    65 OT DIIS     0.80E-01    0.0     0.00046464      -154.4521027814 -9.10E-04
    66 OT DIIS     0.80E-01    0.0     0.00050232      -154.4524861777 -3.83E-04
    67 OT DIIS     0.80E-01    0.0     0.00043629      -154.4534459765 -9.60E-04
    68 OT DIIS     0.80E-01    0.0     0.00041228      -154.4540663323 -6.20E-04
    69 OT DIIS     0.80E-01    0.0     0.00040162      -154.4545367473 -4.70E-04
    70 OT DIIS     0.80E-01    0.0     0.00039243      -154.4548316289 -2.95E-04
    71 OT DIIS     0.80E-01    0.0     0.00037359      -154.4554955264 -6.64E-04
    72 OT DIIS     0.80E-01    0.0     0.00035458      -154.4560153627 -5.20E-04
    73 OT DIIS     0.80E-01    0.0     0.00034225      -154.4564466257 -4.31E-04
    74 OT DIIS     0.80E-01    0.0     0.00033044      -154.4569096174 -4.63E-04
    75 OT DIIS     0.80E-01    0.0     0.00032169      -154.4572821121 -3.72E-04
    76 OT DIIS     0.80E-01    0.0     0.00031243      -154.4576677848 -3.86E-04
    77 OT DIIS     0.80E-01    0.0     0.00030543      -154.4579508143 -2.83E-04
    78 OT DIIS     0.80E-01    0.0     0.00029368      -154.4583758112 -4.25E-04
    79 OT DIIS     0.80E-01    0.0     0.00029437      -154.4588024160 -4.27E-04
    80 OT DIIS     0.80E-01    0.0     0.00027198      -154.4592255852 -4.23E-04
    81 OT DIIS     0.80E-01    0.0     0.00025541      -154.4595219161 -2.96E-04
    82 OT DIIS     0.80E-01    0.0     0.00024654      -154.4596768787 -1.55E-04
    83 OT DIIS     0.80E-01    0.0     0.00023988      -154.4598781444 -2.01E-04
    84 OT DIIS     0.80E-01    0.0     0.00023005      -154.4601781315 -3.00E-04
    85 OT DIIS     0.80E-01    0.0     0.00021968      -154.4604338690 -2.56E-04
    86 OT DIIS     0.80E-01    0.0     0.00021161      -154.4606406262 -2.07E-04
    87 OT DIIS     0.80E-01    0.0     0.00020611      -154.4607876071 -1.47E-04
    88 OT DIIS     0.80E-01    0.0     0.00019684      -154.4608936595 -1.06E-04
    89 OT DIIS     0.80E-01    0.0     0.00019042      -154.4610433782 -1.50E-04
    90 OT DIIS     0.80E-01    0.0     0.00018623      -154.4611561221 -1.13E-04
    91 OT DIIS     0.80E-01    0.0     0.00017772      -154.4613590104 -2.03E-04
    92 OT DIIS     0.80E-01    0.0     0.00017157      -154.4616349799 -2.76E-04
    93 OT DIIS     0.80E-01    0.0     0.00016786      -154.4617509869 -1.16E-04
    94 OT DIIS     0.80E-01    0.0     0.00016393      -154.4618519515 -1.01E-04
    95 OT DIIS     0.80E-01    0.0     0.00016079      -154.4619591854 -1.07E-04
    96 OT DIIS     0.80E-01    0.0     0.00015351      -154.4621659875 -2.07E-04
    97 OT DIIS     0.80E-01    0.0     0.00014675      -154.4622582408 -9.23E-05
    98 OT DIIS     0.80E-01    0.0     0.00014072      -154.4623634224 -1.05E-04
    99 OT DIIS     0.80E-01    0.0     0.00013587      -154.4624990059 -1.36E-04
   100 OT DIIS     0.80E-01    0.0     0.00013121      -154.4626000484 -1.01E-04
   101 OT DIIS     0.80E-01    0.0     0.00012549      -154.4627040491 -1.04E-04
   102 OT DIIS     0.80E-01    0.0     0.00011880      -154.4628340776 -1.30E-04
   103 OT DIIS     0.80E-01    0.0     0.00011331      -154.4628747655 -4.07E-05
   104 OT DIIS     0.80E-01    0.0     0.00010959      -154.4629360376 -6.13E-05
   105 OT DIIS     0.80E-01    0.0     0.00010399      -154.4629786617 -4.26E-05
   106 OT DIIS     0.80E-01    0.0     0.00010164      -154.4630042526 -2.56E-05
   107 OT DIIS     0.80E-01    0.0     0.00009953      -154.4630318570 -2.76E-05
   108 OT DIIS     0.80E-01    0.0     0.00009680      -154.4631311361 -9.93E-05
   109 OT DIIS     0.80E-01    0.0     0.00009398      -154.4631628404 -3.17E-05
   110 OT DIIS     0.80E-01    0.0     0.00009072      -154.4632271612 -6.43E-05
   111 OT DIIS     0.80E-01    0.0     0.00008620      -154.4633216139 -9.45E-05
   112 OT DIIS     0.80E-01    0.0     0.00008337      -154.4633665299 -4.49E-05
   113 OT DIIS     0.80E-01    0.0     0.00008097      -154.4634361187 -6.96E-05
   114 OT DIIS     0.80E-01    0.0     0.00007729      -154.4634749116 -3.88E-05
   115 OT DIIS     0.80E-01    0.0     0.00007629      -154.4635191864 -4.43E-05
   116 OT DIIS     0.80E-01    0.0     0.00007353      -154.4635577662 -3.86E-05
   117 OT DIIS     0.80E-01    0.0     0.00006938      -154.4635783258 -2.06E-05
   118 OT DIIS     0.80E-01    0.0     0.00006643      -154.4636237767 -4.55E-05
   119 OT DIIS     0.80E-01    0.0     0.00006400      -154.4636429652 -1.92E-05
   120 OT DIIS     0.80E-01    0.0     0.00006242      -154.4636581368 -1.52E-05
   121 OT DIIS     0.80E-01    0.0     0.00006078      -154.4636941963 -3.61E-05
   122 OT DIIS     0.80E-01    0.0     0.00005853      -154.4637160146 -2.18E-05
   123 OT DIIS     0.80E-01    0.0     0.00005692      -154.4637425861 -2.66E-05
   124 OT DIIS     0.80E-01    0.0     0.00005494      -154.4637631742 -2.06E-05
   125 OT DIIS     0.80E-01    0.0     0.00005254      -154.4637938603 -3.07E-05
   126 OT DIIS     0.80E-01    0.0     0.00005044      -154.4638077824 -1.39E-05
   127 OT DIIS     0.80E-01    0.0     0.00004908      -154.4638212400 -1.35E-05
   128 OT DIIS     0.80E-01    0.0     0.00004785      -154.4638324091 -1.12E-05
   129 OT DIIS     0.80E-01    0.0     0.00004676      -154.4638442821 -1.19E-05
   130 OT DIIS     0.80E-01    0.0     0.00004542      -154.4638585443 -1.43E-05
   131 OT DIIS     0.80E-01    0.0     0.00004368      -154.4638748803 -1.63E-05
   132 OT DIIS     0.80E-01    0.0     0.00004133      -154.4638946109 -1.97E-05
   133 OT DIIS     0.80E-01    0.0     0.00003992      -154.4639031987 -8.59E-06
   134 OT DIIS     0.80E-01    0.0     0.00003888      -154.4639133485 -1.01E-05
   135 OT DIIS     0.80E-01    0.0     0.00003814      -154.4639182698 -4.92E-06
   136 OT DIIS     0.80E-01    0.0     0.00003722      -154.4639247192 -6.45E-06
   137 OT DIIS     0.80E-01    0.0     0.00003617      -154.4639330757 -8.36E-06
   138 OT DIIS     0.80E-01    0.0     0.00003520      -154.4639446271 -1.16E-05
   139 OT DIIS     0.80E-01    0.0     0.00003438      -154.4639529034 -8.28E-06
   140 OT DIIS     0.80E-01    0.0     0.00003321      -154.4639666563 -1.38E-05
   141 OT DIIS     0.80E-01    0.0     0.00003240      -154.4639742650 -7.61E-06
   142 OT DIIS     0.80E-01    0.0     0.00003177      -154.4639803514 -6.09E-06
   143 OT DIIS     0.80E-01    0.0     0.00003084      -154.4639880795 -7.73E-06
   144 OT DIIS     0.80E-01    0.0     0.00002973      -154.4639967985 -8.72E-06
   145 OT DIIS     0.80E-01    0.0     0.00002884      -154.4640050076 -8.21E-06
   146 OT DIIS     0.80E-01    0.0     0.00002818      -154.4640106718 -5.66E-06
   147 OT DIIS     0.80E-01    0.0     0.00002751      -154.4640187217 -8.05E-06
   148 OT DIIS     0.80E-01    0.0     0.00002702      -154.4640244323 -5.71E-06
   149 OT DIIS     0.80E-01    0.0     0.00002659      -154.4640291159 -4.68E-06
   150 OT DIIS     0.80E-01    0.0     0.00002608      -154.4640340063 -4.89E-06
   151 OT DIIS     0.80E-01    0.0     0.00002540      -154.4640406256 -6.62E-06
   152 OT DIIS     0.80E-01    0.0     0.00002485      -154.4640451999 -4.57E-06
   153 OT DIIS     0.80E-01    0.0     0.00002424      -154.4640496881 -4.49E-06
   154 OT DIIS     0.80E-01    0.0     0.00002370      -154.4640542218 -4.53E-06
   155 OT DIIS     0.80E-01    0.0     0.00002322      -154.4640582404 -4.02E-06
   156 OT DIIS     0.80E-01    0.0     0.00002285      -154.4640618503 -3.61E-06
   157 OT DIIS     0.80E-01    0.0     0.00002251      -154.4640653579 -3.51E-06
   158 OT DIIS     0.80E-01    0.0     0.00002223      -154.4640688425 -3.48E-06
   159 OT DIIS     0.80E-01    0.0     0.00002192      -154.4640721448 -3.30E-06
   160 OT DIIS     0.80E-01    0.0     0.00002162      -154.4640746790 -2.53E-06
   161 OT DIIS     0.80E-01    0.0     0.00002124      -154.4640780701 -3.39E-06
   162 OT DIIS     0.80E-01    0.0     0.00002085      -154.4640809492 -2.88E-06
   163 OT DIIS     0.80E-01    0.0     0.00002048      -154.4640836319 -2.68E-06
   164 OT DIIS     0.80E-01    0.0     0.00002009      -154.4640861713 -2.54E-06
   165 OT DIIS     0.80E-01    0.0     0.00001976      -154.4640887540 -2.58E-06
   166 OT DIIS     0.80E-01    0.0     0.00001952      -154.4640907108 -1.96E-06
   167 OT DIIS     0.80E-01    0.0     0.00001924      -154.4640930302 -2.32E-06
   168 OT DIIS     0.80E-01    0.0     0.00001902      -154.4640948595 -1.83E-06
   169 OT DIIS     0.80E-01    0.0     0.00001870      -154.4640969635 -2.10E-06
   170 OT DIIS     0.80E-01    0.0     0.00001846      -154.4640989326 -1.97E-06
   171 OT DIIS     0.80E-01    0.0     0.00001828      -154.4641002938 -1.36E-06
   172 OT DIIS     0.80E-01    0.0     0.00001805      -154.4641020558 -1.76E-06
   173 OT DIIS     0.80E-01    0.0     0.00001786      -154.4641037242 -1.67E-06
   174 OT DIIS     0.80E-01    0.0     0.00001770      -154.4641052050 -1.48E-06
   175 OT DIIS     0.80E-01    0.0     0.00001753      -154.4641070302 -1.83E-06
   176 OT DIIS     0.80E-01    0.0     0.00001739      -154.4641081591 -1.13E-06
   177 OT DIIS     0.80E-01    0.0     0.00001721      -154.4641099216 -1.76E-06
   178 OT DIIS     0.80E-01    0.0     0.00001705      -154.4641114098 -1.49E-06
   179 OT DIIS     0.80E-01    0.0     0.00001693      -154.4641126210 -1.21E-06
   180 OT DIIS     0.80E-01    0.0     0.00001679      -154.4641141796 -1.56E-06
   181 OT DIIS     0.80E-01    0.0     0.00001666      -154.4641157189 -1.54E-06
   182 OT DIIS     0.80E-01    0.0     0.00001655      -154.4641172122 -1.49E-06
   183 OT DIIS     0.80E-01    0.0     0.00001643      -154.4641189155 -1.70E-06
   184 OT DIIS     0.80E-01    0.0     0.00001635      -154.4641202119 -1.30E-06
   185 OT DIIS     0.80E-01    0.0     0.00001619      -154.4641221393 -1.93E-06
   186 OT DIIS     0.80E-01    0.0     0.00001605      -154.4641240672 -1.93E-06
   187 OT DIIS     0.80E-01    0.0     0.00001594      -154.4641256416 -1.57E-06
   188 OT DIIS     0.80E-01    0.0     0.00001579      -154.4641277571 -2.12E-06
   189 OT DIIS     0.80E-01    0.0     0.00001566      -154.4641297198 -1.96E-06
   190 OT DIIS     0.80E-01    0.0     0.00001553      -154.4641317740 -2.05E-06
   191 OT DIIS     0.80E-01    0.0     0.00001541      -154.4641339819 -2.21E-06
   192 OT DIIS     0.80E-01    0.0     0.00001532      -154.4641355029 -1.52E-06
   193 OT DIIS     0.80E-01    0.0     0.00001518      -154.4641379394 -2.44E-06
   194 OT DIIS     0.80E-01    0.0     0.00001504      -154.4641403140 -2.37E-06
   195 OT DIIS     0.80E-01    0.0     0.00001492      -154.4641424260 -2.11E-06
   196 OT DIIS     0.80E-01    0.0     0.00001477      -154.4641449726 -2.55E-06
   197 OT DIIS     0.80E-01    0.0     0.00001466      -154.4641470783 -2.11E-06
   198 OT DIIS     0.80E-01    0.0     0.00001453      -154.4641495669 -2.49E-06
   199 OT DIIS     0.80E-01    0.0     0.00001442      -154.4641516393 -2.07E-06
   200 OT DIIS     0.80E-01    0.0     0.00001434      -154.4641533241 -1.68E-06
   201 OT DIIS     0.80E-01    0.0     0.00001420      -154.4641557163 -2.39E-06
   202 OT DIIS     0.80E-01    0.0     0.00001407      -154.4641582316 -2.52E-06
   203 OT DIIS     0.80E-01    0.0     0.00001398      -154.4641601792 -1.95E-06
   204 OT DIIS     0.80E-01    0.0     0.00001387      -154.4641620045 -1.83E-06
   205 OT DIIS     0.80E-01    0.0     0.00001377      -154.4641643622 -2.36E-06
   206 OT DIIS     0.80E-01    0.0     0.00001368      -154.4641663151 -1.95E-06
   207 OT DIIS     0.80E-01    0.0     0.00001360      -154.4641677629 -1.45E-06
   208 OT DIIS     0.80E-01    0.0     0.00001349      -154.4641698209 -2.06E-06
   209 OT DIIS     0.80E-01    0.0     0.00001331      -154.4641725320 -2.71E-06
   210 OT DIIS     0.80E-01    0.0     0.00001318      -154.4641751596 -2.63E-06
   211 OT DIIS     0.80E-01    0.0     0.00001306      -154.4641767007 -1.54E-06
   212 OT DIIS     0.80E-01    0.0     0.00001292      -154.4641789610 -2.26E-06
   213 OT DIIS     0.80E-01    0.0     0.00001279      -154.4641808623 -1.90E-06
   214 OT DIIS     0.80E-01    0.0     0.00001271      -154.4641825826 -1.72E-06
   215 OT DIIS     0.80E-01    0.0     0.00001262      -154.4641837582 -1.18E-06
   216 OT DIIS     0.80E-01    0.0     0.00001251      -154.4641853900 -1.63E-06
   217 OT DIIS     0.80E-01    0.0     0.00001238      -154.4641872418 -1.85E-06
   218 OT DIIS     0.80E-01    0.0     0.00001225      -154.4641890947 -1.85E-06
   219 OT DIIS     0.80E-01    0.0     0.00001215      -154.4641905307 -1.44E-06
   220 OT DIIS     0.80E-01    0.0     0.00001205      -154.4641919422 -1.41E-06
   221 OT DIIS     0.80E-01    0.0     0.00001193      -154.4641938679 -1.93E-06
   222 OT DIIS     0.80E-01    0.0     0.00001180      -154.4641944968 -6.29E-07
   223 OT DIIS     0.80E-01    0.0     0.00001165      -154.4641959212 -1.42E-06
   224 OT DIIS     0.80E-01    0.0     0.00001149      -154.4641967570 -8.36E-07
   225 OT DIIS     0.80E-01    0.0     0.00001134      -154.4641974420 -6.85E-07
   226 OT DIIS     0.80E-01    0.0     0.00001125      -154.4641977625 -3.20E-07
   227 OT DIIS     0.80E-01    0.0     0.00001120      -154.4641980588 -2.96E-07
   228 OT DIIS     0.80E-01    0.0     0.00001115      -154.4641985221 -4.63E-07
   229 OT DIIS     0.80E-01    0.0     0.00001109      -154.4641988817 -3.60E-07
   230 OT DIIS     0.80E-01    0.0     0.00001102      -154.4641991873 -3.06E-07
   231 OT DIIS     0.80E-01    0.0     0.00001095      -154.4641996256 -4.38E-07
   232 OT DIIS     0.80E-01    0.0     0.00001087      -154.4641999907 -3.65E-07
   233 OT DIIS     0.80E-01    0.0     0.00001082      -154.4642003928 -4.02E-07
   234 OT DIIS     0.80E-01    0.0     0.00001079      -154.4642008085 -4.16E-07
   235 OT DIIS     0.80E-01    0.0     0.00001075      -154.4642013382 -5.30E-07
   236 OT DIIS     0.80E-01    0.0     0.00001071      -154.4642020909 -7.53E-07
   237 OT DIIS     0.80E-01    0.0     0.00001065      -154.4642033175 -1.23E-06
   238 OT DIIS     0.80E-01    0.0     0.00001059      -154.4642047254 -1.41E-06
   239 OT DIIS     0.80E-01    0.0     0.00001053      -154.4642062300 -1.50E-06
   240 OT DIIS     0.80E-01    0.0     0.00001049      -154.4642078528 -1.62E-06
   241 OT DIIS     0.80E-01    0.0     0.00001044      -154.4642090599 -1.21E-06
   242 OT DIIS     0.80E-01    0.0     0.00001041      -154.4642106507 -1.59E-06
   243 OT DIIS     0.80E-01    0.0     0.00001037      -154.4642118910 -1.24E-06
   244 OT DIIS     0.80E-01    0.0     0.00001036      -154.4642126588 -7.68E-07
   245 OT DIIS     0.80E-01    0.0     0.00001033      -154.4642133136 -6.55E-07
   246 OT DIIS     0.80E-01    0.0     0.00001030      -154.4642144471 -1.13E-06
   247 OT DIIS     0.80E-01    0.0     0.00001027      -154.4642161213 -1.67E-06
   248 OT DIIS     0.80E-01    0.0     0.00001021      -154.4642173996 -1.28E-06
   249 OT DIIS     0.80E-01    0.0     0.00001015      -154.4642193034 -1.90E-06
   250 OT DIIS     0.80E-01    0.0     0.00001010      -154.4642216530 -2.35E-06
   251 OT DIIS     0.80E-01    0.0     0.00001003      -154.4642230591 -1.41E-06
   252 OT DIIS     0.80E-01    0.0     0.00000998      -154.4642242692 -1.21E-06
   253 OT DIIS     0.80E-01    0.0     0.00000990      -154.4642258429 -1.57E-06
   254 OT DIIS     0.80E-01    0.0     0.00000985      -154.4642269744 -1.13E-06
   255 OT DIIS     0.80E-01    0.0     0.00000987      -154.4642270694 -9.50E-08
   256 OT DIIS     0.80E-01    0.0     0.00000980      -154.4642277637 -6.94E-07
   257 OT DIIS     0.80E-01    0.0     0.00000978      -154.4642288794 -1.12E-06
   258 OT DIIS     0.80E-01    0.0     0.00000972      -154.4642294820 -6.03E-07
   259 OT DIIS     0.80E-01    0.0     0.00000967      -154.4642305886 -1.11E-06
   260 OT DIIS     0.80E-01    0.0     0.00000963      -154.4642314122 -8.24E-07
   261 OT DIIS     0.80E-01    0.0     0.00000960      -154.4642319905 -5.78E-07
   262 OT DIIS     0.80E-01    0.0     0.00000956      -154.4642328509 -8.60E-07
   263 OT DIIS     0.80E-01    0.0     0.00000953      -154.4642333809 -5.30E-07
   264 OT DIIS     0.80E-01    0.0     0.00000951      -154.4642342098 -8.29E-07
   265 OT DIIS     0.80E-01    0.0     0.00000947      -154.4642348610 -6.51E-07
   266 OT DIIS     0.80E-01    0.0     0.00000944      -154.4642355681 -7.07E-07
   267 OT DIIS     0.80E-01    0.0     0.00000940      -154.4642367082 -1.14E-06
   268 OT DIIS     0.80E-01    0.0     0.00000936      -154.4642373585 -6.50E-07
   269 OT DIIS     0.80E-01    0.0     0.00000933      -154.4642379567 -5.98E-07
   270 OT DIIS     0.80E-01    0.0     0.00000931      -154.4642385443 -5.88E-07
   271 OT DIIS     0.80E-01    0.0     0.00000927      -154.4642394881 -9.44E-07
   272 OT DIIS     0.80E-01    0.0     0.00000921      -154.4642402810 -7.93E-07
   273 OT DIIS     0.80E-01    0.0     0.00000918      -154.4642409914 -7.10E-07
   274 OT DIIS     0.80E-01    0.0     0.00000914      -154.4642412654 -2.74E-07
   275 OT DIIS     0.80E-01    0.0     0.00000909      -154.4642417012 -4.36E-07
   276 OT DIIS     0.80E-01    0.0     0.00000906      -154.4642419658 -2.65E-07
   277 OT DIIS     0.80E-01    0.0     0.00000903      -154.4642423190 -3.53E-07
   278 OT DIIS     0.80E-01    0.0     0.00000901      -154.4642424560 -1.37E-07
   279 OT DIIS     0.80E-01    0.0     0.00000899      -154.4642427524 -2.96E-07
   280 OT DIIS     0.80E-01    0.0     0.00000897      -154.4642430934 -3.41E-07
   281 OT DIIS     0.80E-01    0.0     0.00000894      -154.4642435951 -5.02E-07
   282 OT DIIS     0.80E-01    0.0     0.00000892      -154.4642441149 -5.20E-07
   283 OT DIIS     0.80E-01    0.0     0.00000889      -154.4642447648 -6.50E-07
   284 OT DIIS     0.80E-01    0.0     0.00000887      -154.4642453007 -5.36E-07
   285 OT DIIS     0.80E-01    0.0     0.00000885      -154.4642458512 -5.50E-07
   286 OT DIIS     0.80E-01    0.0     0.00000883      -154.4642465164 -6.65E-07
   287 OT DIIS     0.80E-01    0.0     0.00000880      -154.4642474485 -9.32E-07
   288 OT DIIS     0.80E-01    0.0     0.00000878      -154.4642483259 -8.77E-07
   289 OT DIIS     0.80E-01    0.0     0.00000875      -154.4642492654 -9.39E-07
   290 OT DIIS     0.80E-01    0.0     0.00000870      -154.4642508716 -1.61E-06
   291 OT DIIS     0.80E-01    0.0     0.00000865      -154.4642526821 -1.81E-06
   292 OT DIIS     0.80E-01    0.0     0.00000860      -154.4642546389 -1.96E-06
   293 OT DIIS     0.80E-01    0.0     0.00000855      -154.4642566351 -2.00E-06
   294 OT DIIS     0.80E-01    0.0     0.00000852      -154.4642580083 -1.37E-06
   295 OT DIIS     0.80E-01    0.2     0.00000850      -154.4642594372 -1.43E-06
   296 OT DIIS     0.80E-01    0.0     0.00000846      -154.4642604120 -9.75E-07
   297 OT SD       0.80E-01    0.0     0.00000865      -154.4642635958 -3.18E-06
   298 OT DIIS     0.80E-01    0.0     0.00000844      -154.4642636164 -2.06E-08
   299 OT DIIS     0.80E-01    0.0     0.00000833      -154.4642639263 -3.10E-07
   300 OT DIIS     0.80E-01    0.0     0.00000862      -154.4642683641 -4.44E-06
   301 OT DIIS     0.80E-01    0.0     0.00000813      -154.4642708229 -2.46E-06
   302 OT DIIS     0.80E-01    0.0     0.00000806      -154.4642726497 -1.83E-06
   303 OT DIIS     0.80E-01    0.0     0.00000801      -154.4642752373 -2.59E-06
   304 OT DIIS     0.80E-01    0.0     0.00000850      -154.4642764219 -1.18E-06
   305 OT SD       0.80E-01    0.0     0.00001322      -154.4642815023 -5.08E-06
   306 OT SD       0.80E-01    0.0     0.00000965      -154.4642815416 -3.93E-08
   307 OT SD       0.80E-01    0.0     0.00000857      -154.4642815653 -2.37E-08
   308 OT DIIS     0.80E-01    0.0     0.00000812      -154.4642815848 -1.96E-08
   309 OT DIIS     0.80E-01    0.0     0.00000906      -154.4642840704 -2.49E-06
   310 OT DIIS     0.80E-01    0.0     0.00000762      -154.4642849705 -9.00E-07
   311 OT DIIS     0.80E-01    0.0     0.00000792      -154.4642870653 -2.09E-06
   312 OT DIIS     0.80E-01    0.0     0.00000745      -154.4642904030 -3.34E-06
   313 OT DIIS     0.80E-01    0.0     0.00000754      -154.4642908707 -4.68E-07
   314 OT DIIS     0.80E-01    0.0     0.00000732      -154.4642911460 -2.75E-07
   315 OT DIIS     0.80E-01    0.0     0.00001356      -154.4642950113 -3.87E-06
   316 OT DIIS     0.80E-01    0.0     0.00000824      -154.4642949296  8.17E-08
   317 OT DIIS     0.80E-01    0.0     0.00001254      -154.4642951848 -2.55E-07
   318 OT DIIS     0.80E-01    0.0     0.00000738      -154.4642975457 -2.36E-06
   319 OT DIIS     0.80E-01    0.0     0.00000697      -154.4642984602 -9.14E-07
   320 OT DIIS     0.80E-01    0.0     0.00000695      -154.4642993428 -8.83E-07
   321 OT DIIS     0.80E-01    0.0     0.00000693      -154.4643005281 -1.19E-06
   322 OT DIIS     0.80E-01    0.0     0.00000683      -154.4643013783 -8.50E-07
   323 OT DIIS     0.80E-01    0.0     0.00000743      -154.4643038458 -2.47E-06
   324 OT DIIS     0.80E-01    0.0     0.00000685      -154.4643042803 -4.35E-07
   325 OT DIIS     0.80E-01    0.0     0.00000673      -154.4643045964 -3.16E-07
   326 OT DIIS     0.80E-01    0.0     0.00000661      -154.4643069751 -2.38E-06
   327 OT DIIS     0.80E-01    0.0     0.00000674      -154.4643075168 -5.42E-07
   328 OT DIIS     0.80E-01    0.0     0.00000662      -154.4643083202 -8.03E-07
   329 OT DIIS     0.80E-01    0.0     0.00000724      -154.4643100939 -1.77E-06
   330 OT SD       0.80E-01    0.0     0.00000790      -154.4643121028 -2.01E-06
   331 OT SD       0.80E-01    0.0     0.00000681      -154.4643121185 -1.57E-08
   332 OT DIIS     0.80E-01    0.0     0.00000651      -154.4643121311 -1.26E-08
   333 OT DIIS     0.80E-01    0.0     0.00000631      -154.4643132302 -1.10E-06
   334 OT DIIS     0.80E-01    0.0     0.00000636      -154.4643141621 -9.32E-07
   335 OT DIIS     0.80E-01    0.0     0.00000626      -154.4643158112 -1.65E-06
   336 OT DIIS     0.80E-01    0.0     0.00000635      -154.4643173764 -1.57E-06
   337 OT DIIS     0.80E-01    0.0     0.00000619      -154.4643187199 -1.34E-06
   338 OT DIIS     0.80E-01    0.0     0.00000604      -154.4643197923 -1.07E-06
   339 OT DIIS     0.80E-01    0.0     0.00000627      -154.4643212393 -1.45E-06
   340 OT DIIS     0.80E-01    0.0     0.00000599      -154.4643227013 -1.46E-06
   341 OT DIIS     0.80E-01    0.0     0.00000592      -154.4643239925 -1.29E-06
   342 OT DIIS     0.80E-01    0.0     0.00000585      -154.4643249473 -9.55E-07
   343 OT DIIS     0.80E-01    0.0     0.00000580      -154.4643265395 -1.59E-06
   344 OT DIIS     0.80E-01    0.0     0.00000575      -154.4643276149 -1.08E-06
   345 OT DIIS     0.80E-01    0.0     0.00000661      -154.4643299149 -2.30E-06
   346 OT DIIS     0.80E-01    0.0     0.00000567      -154.4643306706 -7.56E-07
   347 OT DIIS     0.80E-01    0.0     0.00000566      -154.4643310356 -3.65E-07
   348 OT DIIS     0.80E-01    0.0     0.00000564      -154.4643316936 -6.58E-07
   349 OT DIIS     0.80E-01    0.0     0.00000549      -154.4643338713 -2.18E-06
   350 OT DIIS     0.80E-01    0.0     0.00000569      -154.4643352263 -1.36E-06
   351 OT DIIS     0.80E-01    0.0     0.00000537      -154.4643360426 -8.16E-07
   352 OT DIIS     0.80E-01    0.0     0.00000536      -154.4643368820 -8.39E-07
   353 OT DIIS     0.80E-01    0.0     0.00000587      -154.4643373941 -5.12E-07
   354 OT DIIS     0.80E-01    0.0     0.00000543      -154.4643385758 -1.18E-06
   355 OT DIIS     0.80E-01    0.0     0.00000516      -154.4643393421 -7.66E-07
   356 OT DIIS     0.80E-01    0.0     0.00000517      -154.4643404565 -1.11E-06
   357 OT DIIS     0.80E-01    0.0     0.00000498      -154.4643410455 -5.89E-07
   358 OT DIIS     0.80E-01    0.0     0.00000498      -154.4643415543 -5.09E-07
   359 OT DIIS     0.80E-01    0.0     0.00000489      -154.4643423010 -7.47E-07
   360 OT DIIS     0.80E-01    0.0     0.00000484      -154.4643428046 -5.04E-07
   361 OT DIIS     0.80E-01    0.0     0.00000478      -154.4643432363 -4.32E-07
   362 OT DIIS     0.80E-01    0.0     0.00000471      -154.4643439176 -6.81E-07
   363 OT DIIS     0.80E-01    0.0     0.00000467      -154.4643447361 -8.19E-07
   364 OT DIIS     0.80E-01    0.0     0.00000463      -154.4643450040 -2.68E-07
   365 OT DIIS     0.80E-01    0.0     0.00000454      -154.4643455754 -5.71E-07
   366 OT DIIS     0.80E-01    0.0     0.00000451      -154.4643459286 -3.53E-07
   367 OT DIIS     0.80E-01    0.0     0.00000447      -154.4643461348 -2.06E-07
   368 OT DIIS     0.80E-01    0.0     0.00000444      -154.4643465625 -4.28E-07
   369 OT DIIS     0.80E-01    0.0     0.00000438      -154.4643468733 -3.11E-07
   370 OT DIIS     0.80E-01    0.0     0.00000433      -154.4643474942 -6.21E-07
   371 OT DIIS     0.80E-01    0.0     0.00000426      -154.4643478689 -3.75E-07
   372 OT DIIS     0.80E-01    0.0     0.00000450      -154.4643479065 -3.77E-08
   373 OT DIIS     0.80E-01    0.0     0.00000414      -154.4643481400 -2.33E-07
   374 OT DIIS     0.80E-01    0.0     0.00000407      -154.4643485227 -3.83E-07
   375 OT DIIS     0.80E-01    0.0     0.00000403      -154.4643485361 -1.33E-08
   376 OT DIIS     0.80E-01    0.0     0.00000398      -154.4643486849 -1.49E-07
   377 OT DIIS     0.80E-01    0.0     0.00000396      -154.4643486930 -8.10E-09
   378 OT DIIS     0.80E-01    0.0     0.00000393      -154.4643487371 -4.41E-08
   379 OT DIIS     0.80E-01    0.0     0.00000391      -154.4643487939 -5.68E-08
   380 OT DIIS     0.80E-01    0.0     0.00000387      -154.4643490008 -2.07E-07
   381 OT DIIS     0.80E-01    0.0     0.00000384      -154.4643492478 -2.47E-07
   382 OT DIIS     0.80E-01    0.0     0.00000382      -154.4643494177 -1.70E-07
   383 OT DIIS     0.80E-01    0.0     0.00000379      -154.4643496933 -2.76E-07
   384 OT DIIS     0.80E-01    0.0     0.00000377      -154.4643499215 -2.28E-07
   385 OT DIIS     0.80E-01    0.0     0.00000374      -154.4643501889 -2.67E-07
   386 OT DIIS     0.80E-01    0.0     0.00000370      -154.4643506418 -4.53E-07
   387 OT DIIS     0.80E-01    0.0     0.00000367      -154.4643509809 -3.39E-07
   388 OT DIIS     0.80E-01    0.0     0.00000365      -154.4643512294 -2.48E-07
   389 OT DIIS     0.80E-01    0.0     0.00000362      -154.4643516578 -4.28E-07
   390 OT DIIS     0.80E-01    0.0     0.00000360      -154.4643520012 -3.43E-07
   391 OT DIIS     0.80E-01    0.0     0.00000358      -154.4643523257 -3.25E-07
   392 OT DIIS     0.80E-01    0.0     0.00000356      -154.4643523553 -2.96E-08
   393 OT DIIS     0.80E-01    0.0     0.00000355      -154.4643527483 -3.93E-07
   394 OT DIIS     0.80E-01    0.0     0.00000350      -154.4643531139 -3.66E-07
   395 OT DIIS     0.80E-01    0.0     0.00000348      -154.4643534220 -3.08E-07
   396 OT DIIS     0.80E-01    0.0     0.00000345      -154.4643537329 -3.11E-07
   397 OT DIIS     0.80E-01    0.0     0.00000343      -154.4643539623 -2.29E-07
   398 OT DIIS     0.80E-01    0.0     0.00000341      -154.4643541567 -1.94E-07
   399 OT DIIS     0.80E-01    0.0     0.00000340      -154.4643542690 -1.12E-07
   400 OT DIIS     0.80E-01    0.0     0.00000338      -154.4643543247 -5.58E-08
   401 OT DIIS     0.80E-01    0.0     0.00000335      -154.4643548271 -5.02E-07
   402 OT DIIS     0.80E-01    0.0     0.00000331      -154.4643549240 -9.69E-08
   403 OT DIIS     0.80E-01    0.0     0.00000329      -154.4643550499 -1.26E-07
   404 OT DIIS     0.80E-01    0.0     0.00000326      -154.4643552009 -1.51E-07
   405 OT DIIS     0.80E-01    0.0     0.00000324      -154.4643552691 -6.82E-08
   406 OT DIIS     0.80E-01    0.0     0.00000322      -154.4643553329 -6.38E-08
   407 OT DIIS     0.80E-01    0.0     0.00000320      -154.4643555297 -1.97E-07
   408 OT DIIS     0.80E-01    0.0     0.00000317      -154.4643556582 -1.29E-07
   409 OT DIIS     0.80E-01    0.0     0.00000315      -154.4643558555 -1.97E-07
   410 OT DIIS     0.80E-01    0.0     0.00000312      -154.4643562269 -3.71E-07
   411 OT DIIS     0.80E-01    0.0     0.00000310      -154.4643564242 -1.97E-07
   412 OT DIIS     0.80E-01    0.0     0.00000308      -154.4643566290 -2.05E-07
   413 OT DIIS     0.80E-01    0.0     0.00000307      -154.4643567962 -1.67E-07
   414 OT DIIS     0.80E-01    0.0     0.00000305      -154.4643570940 -2.98E-07
   415 OT DIIS     0.80E-01    0.0     0.00000303      -154.4643571605 -6.65E-08
   416 OT DIIS     0.80E-01    0.0     0.00000300      -154.4643574265 -2.66E-07
   417 OT DIIS     0.80E-01    0.0     0.00000297      -154.4643576114 -1.85E-07
   418 OT DIIS     0.80E-01    0.0     0.00000295      -154.4643578745 -2.63E-07
   419 OT DIIS     0.80E-01    0.0     0.00000293      -154.4643579843 -1.10E-07
   420 OT DIIS     0.80E-01    0.0     0.00000292      -154.4643580844 -1.00E-07
   421 OT DIIS     0.80E-01    0.0     0.00000288      -154.4643583259 -2.42E-07
   422 OT DIIS     0.80E-01    0.0     0.00000284      -154.4643584044 -7.85E-08
   423 OT DIIS     0.80E-01    0.0     0.00000280      -154.4643585331 -1.29E-07
   424 OT DIIS     0.80E-01    0.0     0.00000278      -154.4643586095 -7.64E-08
   425 OT DIIS     0.80E-01    0.0     0.00000277      -154.4643586376 -2.81E-08
   426 OT DIIS     0.80E-01    0.0     0.00000276      -154.4643587380 -1.00E-07
   427 OT DIIS     0.80E-01    0.0     0.00000275      -154.4643587731 -3.51E-08
   428 OT DIIS     0.80E-01    0.0     0.00000273      -154.4643588937 -1.21E-07
   429 OT DIIS     0.80E-01    0.0     0.00000271      -154.4643589966 -1.03E-07
   430 OT DIIS     0.80E-01    0.0     0.00000269      -154.4643590980 -1.01E-07
   431 OT DIIS     0.80E-01    0.0     0.00000267      -154.4643592510 -1.53E-07
   432 OT DIIS     0.80E-01    0.0     0.00000266      -154.4643593798 -1.29E-07
   433 OT DIIS     0.80E-01    0.0     0.00000265      -154.4643594599 -8.01E-08
   434 OT DIIS     0.80E-01    0.0     0.00000264      -154.4643595260 -6.61E-08
   435 OT DIIS     0.80E-01    0.0     0.00000263      -154.4643596196 -9.36E-08
   436 OT DIIS     0.80E-01    0.0     0.00000260      -154.4643598123 -1.93E-07
   437 OT DIIS     0.80E-01    0.0     0.00000257      -154.4643600825 -2.70E-07
   438 OT DIIS     0.80E-01    0.0     0.00000255      -154.4643602929 -2.10E-07
   439 OT DIIS     0.80E-01    0.0     0.00000253      -154.4643604875 -1.95E-07
   440 OT DIIS     0.80E-01    0.0     0.00000251      -154.4643606520 -1.64E-07
   441 OT DIIS     0.80E-01    0.0     0.00000250      -154.4643608254 -1.73E-07
   442 OT DIIS     0.80E-01    0.0     0.00000248      -154.4643609764 -1.51E-07
   443 OT DIIS     0.80E-01    0.0     0.00000247      -154.4643612135 -2.37E-07
   444 OT DIIS     0.80E-01    0.0     0.00000247      -154.4643615305 -3.17E-07
   445 OT DIIS     0.80E-01    0.0     0.00000241      -154.4643617575 -2.27E-07
   446 OT DIIS     0.80E-01    0.0     0.00000238      -154.4643620295 -2.72E-07
   447 OT DIIS     0.80E-01    0.0     0.00000236      -154.4643624031 -3.74E-07
   448 OT DIIS     0.80E-01    0.0     0.00000230      -154.4643626177 -2.15E-07
   449 OT DIIS     0.80E-01    0.0     0.00000235      -154.4643629429 -3.25E-07
   450 OT DIIS     0.80E-01    0.0     0.00000224      -154.4643630473 -1.04E-07
   451 OT DIIS     0.80E-01    0.0     0.00000226      -154.4643633994 -3.52E-07
   452 OT DIIS     0.80E-01    0.0     0.00000218      -154.4643634204 -2.11E-08
   453 OT DIIS     0.80E-01    0.0     0.00000221      -154.4643636110 -1.91E-07
   454 OT DIIS     0.80E-01    0.0     0.00000213      -154.4643637184 -1.07E-07
   455 OT DIIS     0.80E-01    0.0     0.00000211      -154.4643638939 -1.75E-07
   456 OT DIIS     0.80E-01    0.0     0.00000206      -154.4643640776 -1.84E-07
   457 OT DIIS     0.80E-01    0.0     0.00000203      -154.4643642410 -1.63E-07
   458 OT DIIS     0.80E-01    0.0     0.00000201      -154.4643644085 -1.67E-07
   459 OT DIIS     0.80E-01    0.0     0.00000199      -154.4643644846 -7.61E-08
   460 OT DIIS     0.80E-01    0.0     0.00000193      -154.4643646099 -1.25E-07
   461 OT DIIS     0.80E-01    0.0     0.00000191      -154.4643647575 -1.48E-07
   462 OT DIIS     0.80E-01    0.0     0.00000187      -154.4643648516 -9.41E-08
   463 OT DIIS     0.80E-01    0.0     0.00000185      -154.4643648747 -2.31E-08
   464 OT DIIS     0.80E-01    0.0     0.00000183      -154.4643649236 -4.88E-08
   465 OT DIIS     0.80E-01    0.0     0.00000181      -154.4643649644 -4.09E-08
   466 OT DIIS     0.80E-01    0.0     0.00000179      -154.4643649699 -5.49E-09
   467 OT DIIS     0.80E-01    0.0     0.00000177      -154.4643650170 -4.71E-08
   468 OT DIIS     0.80E-01    0.0     0.00000175      -154.4643650535 -3.65E-08
   469 OT DIIS     0.80E-01    0.0     0.00000174      -154.4643650768 -2.33E-08
   470 OT DIIS     0.80E-01    0.0     0.00000173      -154.4643651326 -5.57E-08
   471 OT DIIS     0.80E-01    0.0     0.00000172      -154.4643651609 -2.83E-08
   472 OT DIIS     0.80E-01    0.0     0.00000169      -154.4643652239 -6.30E-08
   473 OT DIIS     0.80E-01    0.0     0.00000167      -154.4643652742 -5.03E-08
   474 OT DIIS     0.80E-01    0.0     0.00000164      -154.4643653616 -8.74E-08
   475 OT DIIS     0.80E-01    0.0     0.00000163      -154.4643654175 -5.59E-08
   476 OT DIIS     0.80E-01    0.0     0.00000162      -154.4643654712 -5.37E-08
   477 OT DIIS     0.80E-01    0.0     0.00000161      -154.4643655138 -4.27E-08
   478 OT DIIS     0.80E-01    0.0     0.00000160      -154.4643655826 -6.88E-08
   479 OT DIIS     0.80E-01    0.0     0.00000158      -154.4643656467 -6.42E-08
   480 OT DIIS     0.80E-01    0.0     0.00000157      -154.4643656981 -5.13E-08
   481 OT DIIS     0.80E-01    0.0     0.00000156      -154.4643657498 -5.17E-08
   482 OT DIIS     0.80E-01    0.0     0.00000156      -154.4643658185 -6.87E-08
   483 OT DIIS     0.80E-01    0.0     0.00000155      -154.4643658733 -5.49E-08
   484 OT DIIS     0.80E-01    0.0     0.00000154      -154.4643659348 -6.15E-08
   485 OT DIIS     0.80E-01    0.0     0.00000153      -154.4643660121 -7.72E-08
   486 OT DIIS     0.80E-01    0.0     0.00000152      -154.4643660883 -7.62E-08
   487 OT DIIS     0.80E-01    0.0     0.00000151      -154.4643661611 -7.28E-08
   488 OT DIIS     0.80E-01    0.0     0.00000150      -154.4643662598 -9.87E-08
   489 OT DIIS     0.80E-01    0.0     0.00000148      -154.4643663745 -1.15E-07
   490 OT DIIS     0.80E-01    0.0     0.00000147      -154.4643664584 -8.38E-08
   491 OT DIIS     0.80E-01    0.0     0.00000144      -154.4643665909 -1.32E-07
   492 OT DIIS     0.80E-01    0.0     0.00000143      -154.4643666935 -1.03E-07
   493 OT DIIS     0.80E-01    0.0     0.00000141      -154.4643667908 -9.73E-08
   494 OT DIIS     0.80E-01    0.0     0.00000139      -154.4643668511 -6.02E-08
   495 OT DIIS     0.80E-01    0.0     0.00000137      -154.4643669302 -7.91E-08
   496 OT DIIS     0.80E-01    0.0     0.00000136      -154.4643669991 -6.89E-08
   497 OT SD       0.80E-01    0.0     0.00000136      -154.4643670679 -6.88E-08
   498 OT DIIS     0.80E-01    0.0     0.00000134      -154.4643670684 -5.12E-10
   499 OT DIIS     0.80E-01    0.0     0.00000132      -154.4643671556 -8.72E-08
   500 OT DIIS     0.80E-01    0.0     0.00000129      -154.4643672335 -7.79E-08
   501 OT DIIS     0.80E-01    0.0     0.00000126      -154.4643672940 -6.05E-08
   502 OT DIIS     0.80E-01    0.0     0.00000124      -154.4643673472 -5.33E-08
   503 OT DIIS     0.80E-01    0.0     0.00000122      -154.4643673864 -3.92E-08
   504 OT DIIS     0.80E-01    0.0     0.00000120      -154.4643674626 -7.62E-08
   505 OT DIIS     0.80E-01    0.0     0.00000119      -154.4643674924 -2.98E-08
   506 OT DIIS     0.80E-01    0.0     0.00000117      -154.4643675165 -2.41E-08
   507 OT DIIS     0.80E-01    0.0     0.00000116      -154.4643675313 -1.48E-08
   508 OT DIIS     0.80E-01    0.0     0.00000114      -154.4643675376 -6.35E-09
   509 OT DIIS     0.80E-01    0.0     0.00000114      -154.4643675505 -1.28E-08
   510 OT DIIS     0.80E-01    0.0     0.00000113      -154.4643675684 -1.79E-08
   511 OT DIIS     0.80E-01    0.0     0.00000112      -154.4643676139 -4.54E-08
   512 OT DIIS     0.80E-01    0.0     0.00000110      -154.4643676716 -5.78E-08
   513 OT DIIS     0.80E-01    0.0     0.00000109      -154.4643677318 -6.02E-08
   514 OT DIIS     0.80E-01    0.0     0.00000108      -154.4643677826 -5.07E-08
   515 OT DIIS     0.80E-01    0.0     0.00000106      -154.4643678621 -7.95E-08
   516 OT DIIS     0.80E-01    0.0     0.00000104      -154.4643679062 -4.41E-08
   517 OT DIIS     0.80E-01    0.0     0.00000103      -154.4643679444 -3.83E-08
   518 OT DIIS     0.80E-01    0.0     0.00000101      -154.4643679815 -3.71E-08
   519 OT DIIS     0.80E-01    0.0     0.00000101      -154.4643680232 -4.17E-08
   520 OT DIIS     0.80E-01    0.0     0.00000099      -154.4643680629 -3.97E-08

  *** SCF run converged in   520 steps ***


  Core-core repulsion energy [eV]:                          17226.89813959509775
  Core Hamiltonian energy [eV]:                             -5711.14751617519596
  Two-electron integral energy [eV]:                       -30369.47895859593336
  Electronic energy [eV]:                                  -20895.88699547315991
  QM/MM Electrostatic energy:                                 -19.63150269966811

  Total energy [eV]:                                        -4203.18921151975246

  Atomic reference energy [eV]:                              3689.50128793716158
  Heat of formation [kcal/mol]:                            -11845.92587099572847

  outer SCF iter =    1 RMS gradient =   0.99E-06 energy =       -154.4643680629
  outer SCF loop converged in   1 iterations or  520 steps


 ENERGY| Total FORCE_EVAL ( QMMM ) energy (a.u.):           -609.140962968235044


 MD_ENERGIES| Initialization proceeding


 ******************************** GO CP2K GO! **********************************
 INITIAL POTENTIAL ENERGY[hartree]     =                     -0.609140962968E+03
 TOTAL INITIAL KINETIC ENERGY[hartree] =                      0.897332749548E+02
 QM INITIAL KINETIC ENERGY[hartree]    =                      0.297037294492E-01
 TOTAL INITIAL TEMPERATURE[K]          =                                 205.296
 QM INITIAL TEMPERATURE[K]             =                                 284.233
 INITIAL BAROSTAT TEMP[K]              =                      0.298000000000E+03
 INITIAL PRESSURE[bar]                 =                      0.193374073616E+05
 INITIAL VOLUME[bohr^3]                =                      0.733958034462E+07
 INITIAL CELL LNTHS[bohr]   =      0.2004481E+03   0.2085587E+03   0.1755662E+03
 INITIAL CELL ANGLS[deg]    =      0.9000000E+02   0.9000000E+02   0.9000000E+02
 ******************************** GO CP2K GO! **********************************

  Translating the system in order to center the QM fragment in the QM box.

 Number of electrons:                                                         96
 Number of occupied orbitals:                                                 48
 Number of molecular orbitals:                                                48

 Number of orbital functions:                                                 73
 Number of independent orbital functions:                                     73

 Extrapolation method: ASPC


 SCF WAVEFUNCTION OPTIMIZATION

  ----------------------------------- OT ---------------------------------------
  Minimizer      : DIIS                : direct inversion
                                         in the iterative subspace
                                         using   7 DIIS vectors
                                         safer DIIS on
  Preconditioner : FULL_SINGLE_INVERSE : inversion of 
                                         H + eS - 2*(Sc)(c^T*H*c+const)(Sc)^T
  Precond_solver : DEFAULT
  stepsize       :    0.08000000                  energy_gap     :    0.08000000
  eps_taylor     :   0.10000E-15                  max_taylor     :             4
  ----------------------------------- OT ---------------------------------------

  Step     Update method      Time    Convergence         Total energy    Change
  ------------------------------------------------------------------------------
     1 OT DIIS     0.80E-01    0.0     0.00050522      -154.4648409204 -1.54E+02
     2 OT DIIS     0.80E-01    0.0     0.00031790      -154.4648951534 -5.42E-05
     3 OT DIIS     0.80E-01    0.0     0.00021667      -154.4649251017 -2.99E-05
     4 OT DIIS     0.80E-01    0.0     0.00013854      -154.4649445405 -1.94E-05
     5 OT DIIS     0.80E-01    0.0     0.00009408      -154.4649504672 -5.93E-06
     6 OT DIIS     0.80E-01    0.0     0.00005655      -154.4649538995 -3.43E-06
     7 OT DIIS     0.80E-01    0.0     0.00004211      -154.4649553490 -1.45E-06
     8 OT DIIS     0.80E-01    0.0     0.00003037      -154.4649561858 -8.37E-07
     9 OT DIIS     0.80E-01    0.0     0.00002409      -154.4649566987 -5.13E-07
    10 OT DIIS     0.80E-01    0.0     0.00001998      -154.4649569794 -2.81E-07
    11 OT DIIS     0.80E-01    0.0     0.00001595      -154.4649572443 -2.65E-07
    12 OT DIIS     0.80E-01    0.0     0.00001364      -154.4649574279 -1.84E-07
    13 OT DIIS     0.80E-01    0.0     0.00001207      -154.4649575551 -1.27E-07
    14 OT DIIS     0.80E-01    0.0     0.00001046      -154.4649576464 -9.13E-08
    15 OT DIIS     0.80E-01    0.0     0.00000923      -154.4649577331 -8.67E-08
    16 OT DIIS     0.80E-01    0.0     0.00000808      -154.4649577999 -6.68E-08
    17 OT DIIS     0.80E-01    0.0     0.00000705      -154.4649578674 -6.75E-08
    18 OT DIIS     0.80E-01    0.0     0.00000641      -154.4649579082 -4.09E-08
    19 OT DIIS     0.80E-01    0.0     0.00000555      -154.4649579488 -4.06E-08
    20 OT DIIS     0.80E-01    0.0     0.00000496      -154.4649579808 -3.20E-08
    21 OT DIIS     0.80E-01    0.0     0.00000445      -154.4649580049 -2.41E-08
    22 OT DIIS     0.80E-01    0.0     0.00000401      -154.4649580222 -1.73E-08
    23 OT DIIS     0.80E-01    0.0     0.00000363      -154.4649580368 -1.46E-08
    24 OT DIIS     0.80E-01    0.0     0.00000327      -154.4649580478 -1.11E-08
    25 OT DIIS     0.80E-01    0.0     0.00000301      -154.4649580576 -9.73E-09
    26 OT DIIS     0.80E-01    0.0     0.00000282      -154.4649580643 -6.78E-09
    27 OT DIIS     0.80E-01    0.0     0.00000264      -154.4649580710 -6.61E-09
    28 OT DIIS     0.80E-01    0.0     0.00000251      -154.4649580766 -5.64E-09
    29 OT DIIS     0.80E-01    0.0     0.00000239      -154.4649580820 -5.35E-09
    30 OT DIIS     0.80E-01    0.0     0.00000230      -154.4649580863 -4.30E-09
    31 OT DIIS     0.80E-01    0.0     0.00000219      -154.4649580912 -4.92E-09
    32 OT DIIS     0.80E-01    0.0     0.00000210      -154.4649580957 -4.54E-09
    33 OT DIIS     0.80E-01    0.0     0.00000200      -154.4649581005 -4.83E-09
    34 OT DIIS     0.80E-01    0.0     0.00000192      -154.4649581048 -4.23E-09
    35 OT DIIS     0.80E-01    0.0     0.00000185      -154.4649581088 -3.99E-09
    36 OT DIIS     0.80E-01    0.0     0.00000177      -154.4649581128 -4.05E-09
    37 OT DIIS     0.80E-01    0.0     0.00000170      -154.4649581168 -4.02E-09
    38 OT DIIS     0.80E-01    0.0     0.00000164      -154.4649581202 -3.41E-09
    39 OT DIIS     0.80E-01    0.0     0.00000157      -154.4649581240 -3.75E-09
    40 OT DIIS     0.80E-01    0.0     0.00000150      -154.4649581271 -3.14E-09
    41 OT DIIS     0.80E-01    0.0     0.00000143      -154.4649581304 -3.24E-09
    42 OT DIIS     0.80E-01    0.0     0.00000138      -154.4649581331 -2.72E-09
    43 OT DIIS     0.80E-01    0.0     0.00000133      -154.4649581355 -2.39E-09
    44 OT DIIS     0.80E-01    0.0     0.00000128      -154.4649581377 -2.21E-09
    45 OT DIIS     0.80E-01    0.0     0.00000124      -154.4649581396 -1.92E-09
    46 OT DIIS     0.80E-01    0.0     0.00000120      -154.4649581412 -1.55E-09
    47 OT DIIS     0.80E-01    0.0     0.00000116      -154.4649581428 -1.65E-09
    48 OT DIIS     0.80E-01    0.0     0.00000113      -154.4649581442 -1.44E-09
    49 OT DIIS     0.80E-01    0.0     0.00000109      -154.4649581458 -1.51E-09
    50 OT DIIS     0.80E-01    0.0     0.00000106      -154.4649581471 -1.33E-09
    51 OT DIIS     0.80E-01    0.0     0.00000103      -154.4649581483 -1.19E-09
    52 OT DIIS     0.80E-01    0.0     0.00000100      -154.4649581495 -1.23E-09
    53 OT DIIS     0.80E-01    0.0     0.00000098      -154.4649581507 -1.21E-09

  *** SCF run converged in    53 steps ***


  Core-core repulsion energy [eV]:                          17223.57499207213550
  Core Hamiltonian energy [eV]:                             -5711.44965549150947
  Two-electron integral energy [eV]:                       -30362.31611194085417
  Electronic energy [eV]:                                  -20892.60771146193656
  QM/MM Electrostatic energy:                                 -19.63048083302067

  Total energy [eV]:                                        -4203.20526862589759

  Atomic reference energy [eV]:                              3689.50128793716158
  Heat of formation [kcal/mol]:                            -11846.29615668935003

  outer SCF iter =    1 RMS gradient =   0.98E-06 energy =       -154.4649581507
  outer SCF loop converged in   1 iterations or   53 steps


 ENERGY| Total FORCE_EVAL ( QMMM ) energy (a.u.):           -610.193100181409818


 *******************************************************************************
 ENSEMBLE TYPE                =                                            NPT_I
 STEP NUMBER                  =                                                1
 TIME [fs]                    =                                         0.500000
 CONSERVED QUANTITY [hartree] =                              -0.519457699495E+03

                                              INSTANTANEOUS             AVERAGES
 CPU TIME [s]                 =                       14.82                14.82
 ENERGY DRIFT PER ATOM [K]    =         -0.258856100796E+00   0.000000000000E+00
 POTENTIAL ENERGY[hartree]    =         -0.610193100181E+03  -0.610193100181E+03
 TOTAL KINETIC ENERGY[hartree]=          0.925493356775E+02   0.925493356775E+02
 QM KINETIC ENERGY[hartree]   =          0.323399131434E-01   0.323399131434E-01
 TOTAL TEMPERATURE[K]         =                     211.739              211.739
 QM TEMPERATURE[K]            =                     309.458              309.458
 PRESSURE [bar]               =          0.167624876280E+05   0.167624876280E+05
 BAROSTAT TEMP[K]             =          0.605331232106E+05   0.605331232106E+05
 VOLUME[bohr^3]               =          0.734129378496E+07   0.734129378496E+07
 CELL LNTHS[bohr]             =    0.2004637E+03   0.2085749E+03   0.1755799E+03
 AVE. CELL LNTHS[bohr]        =    0.2004637E+03   0.2085749E+03   0.1755799E+03
 *******************************************************************************


  Translating the system in order to center the QM fragment in the QM box.

 Number of electrons:                                                         96
 Number of occupied orbitals:                                                 48
 Number of molecular orbitals:                                                48

 Number of orbital functions:                                                 73
 Number of independent orbital functions:                                     73

 Extrapolation method: ASPC


 SCF WAVEFUNCTION OPTIMIZATION

  ----------------------------------- OT ---------------------------------------
  Minimizer      : DIIS                : direct inversion
                                         in the iterative subspace
                                         using   7 DIIS vectors
                                         safer DIIS on
  Preconditioner : FULL_SINGLE_INVERSE : inversion of 
                                         H + eS - 2*(Sc)(c^T*H*c+const)(Sc)^T
  Precond_solver : DEFAULT
  stepsize       :    0.08000000                  energy_gap     :    0.08000000
  eps_taylor     :   0.10000E-15                  max_taylor     :             4
  ----------------------------------- OT ---------------------------------------

  Step     Update method      Time    Convergence         Total energy    Change
  ------------------------------------------------------------------------------
     1 OT DIIS     0.80E-01    0.0     0.00016519      -154.4320451088 -1.54E+02
     2 OT DIIS     0.80E-01    0.0     0.00010121      -154.4320508968 -5.79E-06
     3 OT DIIS     0.80E-01    0.0     0.00006953      -154.4320539971 -3.10E-06
     4 OT DIIS     0.80E-01    0.0     0.00004925      -154.4320555948 -1.60E-06
     5 OT DIIS     0.80E-01    0.0     0.00003236      -154.4320564305 -8.36E-07
     6 OT DIIS     0.80E-01    0.0     0.00002048      -154.4320568763 -4.46E-07
     7 OT DIIS     0.80E-01    0.0     0.00001492      -154.4320570689 -1.93E-07
     8 OT DIIS     0.80E-01    0.0     0.00001053      -154.4320571752 -1.06E-07
     9 OT DIIS     0.80E-01    0.0     0.00000874      -154.4320572292 -5.40E-08
    10 OT DIIS     0.80E-01    0.0     0.00000732      -154.4320572618 -3.26E-08
    11 OT DIIS     0.80E-01    0.0     0.00000585      -154.4320572990 -3.71E-08
    12 OT DIIS     0.80E-01    0.0     0.00000507      -154.4320573241 -2.51E-08
    13 OT DIIS     0.80E-01    0.0     0.00000444      -154.4320573419 -1.78E-08
    14 OT DIIS     0.80E-01    0.0     0.00000383      -154.4320573560 -1.41E-08
    15 OT DIIS     0.80E-01    0.0     0.00000342      -154.4320573662 -1.02E-08
    16 OT DIIS     0.80E-01    0.0     0.00000311      -154.4320573744 -8.24E-09
    17 OT DIIS     0.80E-01    0.0     0.00000285      -154.4320573837 -9.29E-09
    18 OT DIIS     0.80E-01    0.0     0.00000263      -154.4320573899 -6.20E-09
    19 OT DIIS     0.80E-01    0.0     0.00000239      -154.4320573969 -6.97E-09
    20 OT DIIS     0.80E-01    0.0     0.00000224      -154.4320574029 -5.97E-09
    21 OT DIIS     0.80E-01    0.0     0.00000207      -154.4320574085 -5.63E-09
    22 OT DIIS     0.80E-01    0.0     0.00000195      -154.4320574131 -4.58E-09
    23 OT DIIS     0.80E-01    0.0     0.00000183      -154.4320574170 -3.89E-09
    24 OT DIIS     0.80E-01    0.0     0.00000173      -154.4320574207 -3.68E-09
    25 OT DIIS     0.80E-01    0.0     0.00000164      -154.4320574244 -3.71E-09
    26 OT DIIS     0.80E-01    0.0     0.00000157      -154.4320574271 -2.75E-09
    27 OT DIIS     0.80E-01    0.0     0.00000150      -154.4320574301 -2.99E-09
    28 OT DIIS     0.80E-01    0.0     0.00000144      -154.4320574330 -2.94E-09
    29 OT DIIS     0.80E-01    0.0     0.00000138      -154.4320574359 -2.85E-09
    30 OT DIIS     0.80E-01    0.0     0.00000133      -154.4320574382 -2.28E-09
    31 OT DIIS     0.80E-01    0.0     0.00000128      -154.4320574407 -2.51E-09
    32 OT DIIS     0.80E-01    0.0     0.00000122      -154.4320574432 -2.48E-09
    33 OT DIIS     0.80E-01    0.0     0.00000117      -154.4320574459 -2.69E-09
    34 OT DIIS     0.80E-01    0.0     0.00000112      -154.4320574480 -2.17E-09
    35 OT DIIS     0.80E-01    0.0     0.00000106      -154.4320574504 -2.36E-09
    36 OT DIIS     0.80E-01    0.0     0.00000099      -154.4320574530 -2.56E-09

  *** SCF run converged in    36 steps ***


  Core-core repulsion energy [eV]:                          17219.08693771486651
  Core Hamiltonian energy [eV]:                             -5711.85739177045434
  Two-electron integral energy [eV]:                       -30352.70659207233984
  Electronic energy [eV]:                                  -20888.21068780662245
  QM/MM Electrostatic energy:                                 -19.59423481837758

  Total energy [eV]:                                        -4202.30999511013306

  Atomic reference energy [eV]:                              3689.50128793716158
  Heat of formation [kcal/mol]:                            -11825.65065732069343

  outer SCF iter =    1 RMS gradient =   0.99E-06 energy =       -154.4320574530
  outer SCF loop converged in   1 iterations or   36 steps


 ENERGY| Total FORCE_EVAL ( QMMM ) energy (a.u.):           -613.261286360697682


 *******************************************************************************
 ENSEMBLE TYPE                =                                            NPT_I
 STEP NUMBER                  =                                                2
 TIME [fs]                    =                                         1.000000
 CONSERVED QUANTITY [hartree] =                              -0.519575094878E+03

                                              INSTANTANEOUS             AVERAGES
 CPU TIME [s]                 =                        1.92                 8.37
 ENERGY DRIFT PER ATOM [K]    =         -0.661726100161E+00  -0.330863050080E+00
 POTENTIAL ENERGY[hartree]    =         -0.613261286361E+03  -0.611727193271E+03
 TOTAL KINETIC ENERGY[hartree]=          0.970044588326E+02   0.947768972550E+02
 QM KINETIC ENERGY[hartree]   =          0.368961042851E-01   0.346180087142E-01
 TOTAL TEMPERATURE[K]         =                     221.932              216.835
 QM TEMPERATURE[K]            =                     353.056              331.257
 PRESSURE [bar]               =          0.108923830534E+05   0.138274353407E+05
 BAROSTAT TEMP[K]             =          0.171062712254E+06   0.115797917732E+06
 VOLUME[bohr^3]               =          0.734552279685E+07   0.734340829090E+07
 CELL LNTHS[bohr]             =    0.2005022E+03   0.2086150E+03   0.1756136E+03
 AVE. CELL LNTHS[bohr]        =    0.2004830E+03   0.2085950E+03   0.1755967E+03
 *******************************************************************************


  Translating the system in order to center the QM fragment in the QM box.

 Number of electrons:                                                         96
 Number of occupied orbitals:                                                 48
 Number of molecular orbitals:                                                48

 Number of orbital functions:                                                 73
 Number of independent orbital functions:                                     73

 Extrapolation method: ASPC


 SCF WAVEFUNCTION OPTIMIZATION

  ----------------------------------- OT ---------------------------------------
  Minimizer      : DIIS                : direct inversion
                                         in the iterative subspace
                                         using   7 DIIS vectors
                                         safer DIIS on
  Preconditioner : FULL_SINGLE_INVERSE : inversion of 
                                         H + eS - 2*(Sc)(c^T*H*c+const)(Sc)^T
  Precond_solver : DEFAULT
  stepsize       :    0.08000000                  energy_gap     :    0.08000000
  eps_taylor     :   0.10000E-15                  max_taylor     :             4
  ----------------------------------- OT ---------------------------------------

  Step     Update method      Time    Convergence         Total energy    Change
  ------------------------------------------------------------------------------
     1 OT DIIS     0.80E-01    0.0     0.00011374      -154.3680836901 -1.54E+02
     2 OT DIIS     0.80E-01    0.0     0.00006748      -154.3680863649 -2.67E-06
     3 OT DIIS     0.80E-01    0.0     0.00004654      -154.3680876724 -1.31E-06
     4 OT DIIS     0.80E-01    0.0     0.00003365      -154.3680884248 -7.52E-07
     5 OT DIIS     0.80E-01    0.0     0.00002232      -154.3680887778 -3.53E-07
     6 OT DIIS     0.80E-01    0.0     0.00001360      -154.3680890074 -2.30E-07
     7 OT DIIS     0.80E-01    0.0     0.00000979      -154.3680890982 -9.08E-08
     8 OT DIIS     0.80E-01    0.0     0.00000634      -154.3680891412 -4.30E-08
     9 OT DIIS     0.80E-01    0.0     0.00000499      -154.3680891605 -1.93E-08
    10 OT DIIS     0.80E-01    0.0     0.00000392      -154.3680891702 -9.67E-09
    11 OT DIIS     0.80E-01    0.0     0.00000295      -154.3680891797 -9.50E-09
    12 OT DIIS     0.80E-01    0.0     0.00000247      -154.3680891850 -5.38E-09
    13 OT DIIS     0.80E-01    0.0     0.00000206      -154.3680891888 -3.73E-09
    14 OT DIIS     0.80E-01    0.0     0.00000172      -154.3680891911 -2.28E-09
    15 OT DIIS     0.80E-01    0.0     0.00000148      -154.3680891928 -1.74E-09
    16 OT DIIS     0.80E-01    0.0     0.00000131      -154.3680891941 -1.35E-09
    17 OT DIIS     0.80E-01    0.0     0.00000115      -154.3680891956 -1.48E-09
    18 OT DIIS     0.80E-01    0.0     0.00000102      -154.3680891965 -8.49E-10
    19 OT DIIS     0.80E-01    0.0     0.00000090      -154.3680891974 -8.93E-10

  *** SCF run converged in    19 steps ***


  Core-core repulsion energy [eV]:                          17214.13626886297061
  Core Hamiltonian energy [eV]:                             -5712.39984490684310
  Two-electron integral energy [eV]:                       -30341.99144042603439
  Electronic energy [eV]:                                  -20883.39556511985938
  QM/MM Electrostatic energy:                                 -19.52528533265823

  Total energy [eV]:                                        -4200.56933035264137

  Atomic reference energy [eV]:                              3689.50128793716158
  Heat of formation [kcal/mol]:                            -11785.50997124092282

  outer SCF iter =    1 RMS gradient =   0.90E-06 energy =       -154.3680891974
  outer SCF loop converged in   1 iterations or   19 steps


 ENERGY| Total FORCE_EVAL ( QMMM ) energy (a.u.):           -616.622327696644788


 *******************************************************************************
 ENSEMBLE TYPE                =                                            NPT_I
 STEP NUMBER                  =                                                3
 TIME [fs]                    =                                         1.500000
 CONSERVED QUANTITY [hartree] =                              -0.519622320182E+03

[...]
 VOLUME[bohr^3]               =          0.729535700273E+07   0.734729426380E+07
 CELL LNTHS[bohr]             =    0.2000447E+03   0.2081390E+03   0.1752129E+03
 AVE. CELL LNTHS[bohr]        =    0.2005179E+03   0.2086314E+03   0.1756274E+03
 *******************************************************************************


  Translating the system in order to center the QM fragment in the QM box.

 Number of electrons:                                                         96
 Number of occupied orbitals:                                                 48
 Number of molecular orbitals:                                                48

 Number of orbital functions:                                                 73
 Number of independent orbital functions:                                     73

 Extrapolation method: ASPC


 SCF WAVEFUNCTION OPTIMIZATION

  ----------------------------------- OT ---------------------------------------
  Minimizer      : DIIS                : direct inversion
                                         in the iterative subspace
                                         using   7 DIIS vectors
                                         safer DIIS on
  Preconditioner : FULL_SINGLE_INVERSE : inversion of 
                                         H + eS - 2*(Sc)(c^T*H*c+const)(Sc)^T
  Precond_solver : DEFAULT
  stepsize       :    0.08000000                  energy_gap     :    0.08000000
  eps_taylor     :   0.10000E-15                  max_taylor     :             4
  ----------------------------------- OT ---------------------------------------

  Step     Update method      Time    Convergence         Total energy    Change
  ------------------------------------------------------------------------------
     1 OT DIIS     0.80E-01    0.0     0.11105084      -147.6776431219 -1.48E+02
     2 OT DIIS     0.80E-01    0.0     0.08076673      -149.0570393493 -1.38E+00
     3 OT DIIS     0.80E-01    0.0     0.03536853      -149.6212889115 -5.64E-01
     4 OT SD       0.80E-01    0.0     0.06579377      -147.8163948864  1.80E+00
     5 OT SD       0.80E-01    0.0     0.07173437      -149.2659991070 -1.45E+00
     6 OT SD       0.80E-01    0.0     0.03038016      -149.7914758679 -5.25E-01
     7 OT SD       0.80E-01    0.0     0.01979934      -149.8494668166 -5.80E-02
     8 OT SD       0.80E-01    0.0     0.01351471      -149.8777902319 -2.83E-02
     9 OT DIIS     0.80E-01    0.0     0.00985120      -149.8937203749 -1.59E-02
    10 OT DIIS     0.80E-01    0.0     0.09420414      -148.4325954585  1.46E+00
    11 OT DIIS     0.80E-01    0.0     0.09105507      -148.8402856769 -4.08E-01
    12 OT DIIS     0.80E-01    0.0     0.07912689      -149.2722712982 -4.32E-01
    13 OT DIIS     0.80E-01    0.0     0.03407905      -149.8302810073 -5.58E-01
    14 OT SD       0.80E-01    0.0     0.00824602      -149.9387257908 -1.08E-01
    15 OT DIIS     0.80E-01    0.0     0.00632991      -149.9439281237 -5.20E-03
    16 OT DIIS     0.80E-01    0.0     0.06402138      -149.6164536387  3.27E-01
    17 OT DIIS     0.80E-01    0.0     0.01924881      -149.9331314164 -3.17E-01
    18 OT DIIS     0.80E-01    0.0     0.00798603      -149.9644894851 -3.14E-02
    19 OT DIIS     0.80E-01    0.0     0.00146690      -149.9699614529 -5.47E-03
    20 OT DIIS     0.80E-01    0.0     0.00993568      -149.9627405769  7.22E-03
    21 OT DIIS     0.80E-01    0.0     0.00224803      -149.9679927758 -5.25E-03
    22 OT DIIS     0.80E-01    0.0     0.00146620      -149.9692179601 -1.23E-03
    23 OT SD       0.80E-01    0.0     0.00106890      -149.9694562151 -2.38E-04
    24 OT DIIS     0.80E-01    0.0     0.00097147      -149.9696307918 -1.75E-04
    25 OT DIIS     0.80E-01    0.0     0.00176136      -149.9698060556 -1.75E-04
    26 OT DIIS     0.80E-01    0.0     0.00046286      -149.9709868613 -1.18E-03
    27 OT DIIS     0.80E-01    0.0     0.00115862      -149.9706279630  3.59E-04
    28 OT DIIS     0.80E-01    0.0     0.00043262      -149.9713065394 -6.79E-04
    29 OT DIIS     0.80E-01    0.0     0.00028744      -149.9714797997 -1.73E-04
    30 OT DIIS     0.80E-01    0.0     0.00022987      -149.9719601617 -4.80E-04
    31 OT DIIS     0.80E-01    0.0     0.00029038      -149.9719741794 -1.40E-05
    32 OT DIIS     0.80E-01    0.0     0.00018122      -149.9720970440 -1.23E-04
    33 OT DIIS     0.80E-01    0.0     0.00016945      -149.9721812941 -8.43E-05
    34 OT DIIS     0.80E-01    0.0     0.00015982      -149.9722328755 -5.16E-05
    35 OT DIIS     0.80E-01    0.0     0.00015287      -149.9722639410 -3.11E-05
    36 OT DIIS     0.80E-01    0.0     0.00014481      -149.9723146991 -5.08E-05
    37 OT DIIS     0.80E-01    0.0     0.00013198      -149.9723776986 -6.30E-05
    38 OT DIIS     0.80E-01    0.0     0.00010172      -149.9724764276 -9.87E-05
    39 OT DIIS     0.80E-01    0.0     0.00009861      -149.9724850646 -8.64E-06
    40 OT DIIS     0.80E-01    0.0     0.00008899      -149.9725237003 -3.86E-05
    41 OT DIIS     0.80E-01    0.0     0.00008250      -149.9725467036 -2.30E-05
    42 OT DIIS     0.80E-01    0.0     0.00006710      -149.9725946652 -4.80E-05
    43 OT DIIS     0.80E-01    0.0     0.00005862      -149.9726126462 -1.80E-05
    44 OT DIIS     0.80E-01    0.0     0.00005518      -149.9726171716 -4.53E-06
    45 OT DIIS     0.80E-01    0.0     0.00004955      -149.9726211678 -4.00E-06
    46 OT DIIS     0.80E-01    0.0     0.00004756      -149.9726226665 -1.50E-06
    47 OT DIIS     0.80E-01    0.0     0.00004193      -149.9726315528 -8.89E-06
    48 OT DIIS     0.80E-01    0.0     0.00003711      -149.9726379510 -6.40E-06
    49 OT DIIS     0.80E-01    0.0     0.00003491      -149.9726415048 -3.55E-06
    50 OT DIIS     0.80E-01    0.0     0.00003366      -149.9726433282 -1.82E-06
    51 OT DIIS     0.80E-01    0.0     0.00002924      -149.9726491457 -5.82E-06
    52 OT DIIS     0.80E-01    0.0     0.00002782      -149.9726503886 -1.24E-06
    53 OT DIIS     0.80E-01    0.0     0.00002742      -149.9726511906 -8.02E-07
    54 OT DIIS     0.80E-01    0.0     0.00002649      -149.9726533594 -2.17E-06
    55 OT DIIS     0.80E-01    0.0     0.00002542      -149.9726564221 -3.06E-06
    56 OT DIIS     0.80E-01    0.0     0.00002486      -149.9726586418 -2.22E-06
    57 OT DIIS     0.80E-01    0.0     0.00002452      -149.9726604504 -1.81E-06
    58 OT DIIS     0.80E-01    0.0     0.00002443      -149.9726610895 -6.39E-07
    59 OT DIIS     0.80E-01    0.0     0.00002410      -149.9726639653 -2.88E-06
    60 OT DIIS     0.80E-01    0.0     0.00002398      -149.9726651419 -1.18E-06
    61 OT DIIS     0.80E-01    0.0     0.00002382      -149.9726665390 -1.40E-06
    62 OT DIIS     0.80E-01    0.0     0.00002357      -149.9726693208 -2.78E-06
    63 OT DIIS     0.80E-01    0.0     0.00002340      -149.9726726596 -3.34E-06
    64 OT DIIS     0.80E-01    0.0     0.00002325      -149.9726753546 -2.70E-06
    65 OT DIIS     0.80E-01    0.0     0.00002317      -149.9726767331 -1.38E-06
    66 OT DIIS     0.80E-01    0.0     0.00002302      -149.9726805765 -3.84E-06
    67 OT DIIS     0.80E-01    0.0     0.00002294      -149.9726835083 -2.93E-06
    68 OT DIIS     0.80E-01    0.0     0.00002275      -149.9726874908 -3.98E-06
    69 OT DIIS     0.80E-01    0.0     0.00002268      -149.9726882457 -7.55E-07
    70 OT SD       0.80E-01    0.0     0.00002675      -149.9727041311 -1.59E-05
    71 OT SD       0.80E-01    0.0     0.00002540      -149.9727042771 -1.46E-07
    72 OT DIIS     0.80E-01    0.0     0.00002444      -149.9727044206 -1.43E-07
    73 OT DIIS     0.80E-01    0.0     0.00002336      -149.9727149631 -1.05E-05
    74 OT DIIS     0.80E-01    0.0     0.00002192      -149.9727182007 -3.24E-06
    75 OT DIIS     0.80E-01    0.0     0.00002372      -149.9727259226 -7.72E-06
    76 OT SD       0.80E-01    0.0     0.00015791      -149.9727652367 -3.93E-05
    77 OT SD       0.80E-01    0.0     0.00013110      -149.9727659605 -7.24E-07
    78 OT SD       0.80E-01    0.0     0.00010905      -149.9727664940 -5.34E-07
    79 OT DIIS     0.80E-01    0.0     0.00009093      -149.9727668976 -4.04E-07
    80 OT DIIS     0.80E-01    0.0     0.00011545      -149.9727872436 -2.03E-05
    81 OT SD       0.80E-01    0.0     0.00004653      -149.9727902950 -3.05E-06
    82 OT SD       0.80E-01    0.0     0.00004002      -149.9727904523 -1.57E-07
    83 OT SD       0.80E-01    0.0     0.00003489      -149.9727905944 -1.42E-07
    84 OT DIIS     0.80E-01    0.0     0.00003090      -149.9727907262 -1.32E-07
    85 OT DIIS     0.80E-01    0.0     0.00004971      -149.9728075246 -1.68E-05
    86 OT DIIS     0.80E-01    0.0     0.00020204      -149.9728325589 -2.50E-05
    87 OT SD       0.80E-01    0.0     0.00010717      -149.9728288187  3.74E-06
    88 OT SD       0.80E-01    0.0     0.00008900      -149.9728291931 -3.74E-07
    89 OT SD       0.80E-01    0.0     0.00007413      -149.9728294783 -2.85E-07
    90 OT DIIS     0.80E-01    0.0     0.00006201      -149.9728297027 -2.24E-07
    91 OT DIIS     0.80E-01    0.0     0.00012054      -149.9728634495 -3.37E-05
    92 OT SD       0.80E-01    0.0     0.00029274      -149.9728656134 -2.16E-06
    93 OT SD       0.80E-01    0.0     0.00024095      -149.9728678293 -2.22E-06
    94 OT SD       0.80E-01    0.0     0.00019841      -149.9728693539 -1.52E-06
    95 OT SD       0.80E-01    0.0     0.00016347      -149.9728704109 -1.06E-06
    96 OT DIIS     0.80E-01    0.0     0.00013479      -149.9728711522 -7.41E-07
    97 OT SD       0.80E-01    0.0     0.00003448      -149.9728856370 -1.45E-05
    98 OT SD       0.80E-01    0.0     0.00002970      -149.9728857322 -9.52E-08
    99 OT DIIS     0.80E-01    0.0     0.00002599      -149.9728858188 -8.66E-08
   100 OT SD       0.80E-01    0.0     0.00002122      -149.9728927003 -6.88E-06
   101 OT DIIS     0.80E-01    0.0     0.00001947      -149.9728927710 -7.07E-08
   102 OT DIIS     0.80E-01    0.0     0.00003696      -149.9728983436 -5.57E-06
   103 OT SD       0.80E-01    0.0     0.00002930      -149.9729066757 -8.33E-06
   104 OT SD       0.80E-01    0.0     0.00002545      -149.9729067580 -8.23E-08
   105 OT SD       0.80E-01    0.0     0.00002252      -149.9729068331 -7.50E-08
   106 OT SD       0.80E-01    0.0     0.00002031      -149.9729069035 -7.04E-08
   107 OT DIIS     0.80E-01    0.0     0.00001868      -149.9729069709 -6.74E-08
   108 OT DIIS     0.80E-01    0.0     0.00018757      -149.9729351568 -2.82E-05
   109 OT SD       0.80E-01    0.0     0.00018112      -149.9729362468 -1.09E-06
   110 OT SD       0.80E-01    0.0     0.00014834      -149.9729371309 -8.84E-07
   111 OT SD       0.80E-01    0.0     0.00012157      -149.9729377384 -6.07E-07
   112 OT DIIS     0.80E-01    0.0     0.00009972      -149.9729381611 -4.23E-07
   113 OT DIIS     0.80E-01    0.0     0.00018388      -149.9729559387 -1.78E-05
   114 OT DIIS     0.80E-01    0.0     0.00037950      -149.9729683366 -1.24E-05
   115 OT SD       0.80E-01    0.0     0.00018690      -149.9729591794  9.16E-06
   116 OT SD       0.80E-01    0.0     0.00015256      -149.9729601187 -9.39E-07
   117 OT SD       0.80E-01    0.0     0.00012459      -149.9729607556 -6.37E-07
   118 OT DIIS     0.80E-01    0.0     0.00010182      -149.9729611916 -4.36E-07
   119 OT DIIS     0.80E-01    0.0     0.00024223      -149.9729846296 -2.34E-05
   120 OT SD       0.80E-01    0.0     0.00005604      -149.9729820373  2.59E-06
   121 OT SD       0.80E-01    0.0     0.00004594      -149.9729821489 -1.12E-07
   122 OT SD       0.80E-01    0.0     0.00003781      -149.9729822329 -8.40E-08
   123 OT SD       0.80E-01    0.0     0.00003131      -149.9729822986 -6.57E-08
   124 OT DIIS     0.80E-01    0.0     0.00002614      -149.9729823522 -5.35E-08
   125 OT DIIS     0.80E-01    0.0     0.00038206      -149.9729931700 -1.08E-05
   126 OT SD       0.80E-01    0.0     0.00010087      -149.9729957007 -2.53E-06
   127 OT DIIS     0.80E-01    0.0     0.00008184      -149.9729959891 -2.88E-07
   128 OT DIIS     0.80E-01    0.0     0.00001392      -149.9729975724 -1.58E-06
   129 OT SD       0.80E-01    0.0     0.00001176      -149.9729984809 -9.09E-07
   130 OT DIIS     0.80E-01    0.0     0.00001054      -149.9729984999 -1.90E-08
   131 OT DIIS     0.80E-01    0.0     0.00021365      -149.9730090388 -1.05E-05
   132 OT SD       0.80E-01    0.0     0.00004354      -149.9730096631 -6.24E-07
   133 OT SD       0.80E-01    0.0     0.00003533      -149.9730097257 -6.26E-08
   134 OT DIIS     0.80E-01    0.0     0.00002875      -149.9730097705 -4.48E-08
   135 OT SD       0.80E-01    0.0     0.00001918      -149.9730097936 -2.31E-08
   136 OT DIIS     0.80E-01    0.0     0.00001586      -149.9730098128 -1.92E-08
   137 OT DIIS     0.80E-01    0.0     0.00015734      -149.9730163931 -6.58E-06
   138 OT SD       0.80E-01    0.0     0.00002010      -149.9730179668 -1.57E-06
   139 OT SD       0.80E-01    0.0     0.00001641      -149.9730179842 -1.74E-08
   140 OT SD       0.80E-01    0.0     0.00001350      -149.9730179977 -1.35E-08
   141 OT SD       0.80E-01    0.0     0.00001121      -149.9730180087 -1.10E-08
   142 OT DIIS     0.80E-01    0.0     0.00000945      -149.9730180181 -9.38E-09
   143 OT DIIS     0.80E-01    0.0     0.00003951      -149.9730204055 -2.39E-06
   144 OT SD       0.80E-01    0.0     0.00000934      -149.9730215880 -1.18E-06
   145 OT SD       0.80E-01    0.0     0.00000788      -149.9730215948 -6.86E-09
   146 OT SD       0.80E-01    0.0     0.00000676      -149.9730216009 -6.06E-09
   147 OT SD       0.80E-01    0.0     0.00000593      -149.9730216064 -5.54E-09
   148 OT DIIS     0.80E-01    0.0     0.00000533      -149.9730216116 -5.18E-09
   149 OT DIIS     0.80E-01    0.0     0.00006389      -149.9730243575 -2.75E-06
   150 OT SD       0.80E-01    0.0     0.00000768      -149.9730246795 -3.22E-07
   151 OT SD       0.80E-01    0.0     0.00000636      -149.9730246831 -3.64E-09
   152 OT SD       0.80E-01    0.0     0.00000533      -149.9730246862 -3.06E-09
   153 OT DIIS     0.80E-01    0.0     0.00000456      -149.9730246889 -2.69E-09
   154 OT DIIS     0.80E-01    0.0     0.00001380      -149.9730253449 -6.56E-07
   155 OT DIIS     0.80E-01    0.0     0.00001498      -149.9730255971 -2.52E-07
   156 OT SD       0.80E-01    0.0     0.00000229      -149.9730257537 -1.57E-07
   157 OT DIIS     0.80E-01    0.0     0.00000224      -149.9730257551 -1.38E-09
   158 OT DIIS     0.80E-01    0.0     0.00000648      -149.9730260222 -2.67E-07
   159 OT DIIS     0.80E-01    0.0     0.00000487      -149.9730260812 -5.90E-08
   160 OT DIIS     0.80E-01    0.0     0.00000225      -149.9730261379 -5.67E-08
   161 OT SD       0.80E-01    0.0     0.00000232      -149.9730261799 -4.19E-08
   162 OT DIIS     0.80E-01    0.0     0.00000217      -149.9730261809 -1.09E-09
   163 OT SD       0.80E-01    0.0     0.00000206      -149.9730263414 -1.60E-07
   164 OT DIIS     0.80E-01    0.0     0.00000194      -149.9730263423 -9.09E-10
   165 OT DIIS     0.80E-01    0.0     0.00000163      -149.9730264655 -1.23E-07
   166 OT DIIS     0.80E-01    0.0     0.00000356      -149.9730264967 -3.13E-08
   167 OT SD       0.80E-01    0.0     0.00000149      -149.9730264991 -2.36E-09
   168 OT DIIS     0.80E-01    0.0     0.00000147      -149.9730264997 -6.09E-10
   169 OT DIIS     0.80E-01    0.0     0.00000142      -149.9730265193 -1.96E-08
   170 OT DIIS     0.80E-01    0.0     0.00000140      -149.9730265416 -2.23E-08
   171 OT DIIS     0.80E-01    0.0     0.00000139      -149.9730265852 -4.36E-08
   172 OT DIIS     0.80E-01    0.0     0.00000137      -149.9730266099 -2.47E-08
   173 OT DIIS     0.80E-01    0.0     0.00000136      -149.9730266394 -2.95E-08
   174 OT DIIS     0.80E-01    0.0     0.00000131      -149.9730267253 -8.59E-08
   175 OT DIIS     0.80E-01    0.0     0.00000129      -149.9730267452 -1.99E-08
   176 OT DIIS     0.80E-01    0.0     0.00000119      -149.9730268628 -1.18E-07
   177 OT DIIS     0.80E-01    0.0     0.00000104      -149.9730269805 -1.18E-07
   178 OT DIIS     0.80E-01    0.0     0.00000119      -149.9730269837 -3.23E-09
   179 OT DIIS     0.80E-01    0.0     0.00000105      -149.9730269849 -1.20E-09
   180 OT DIIS     0.80E-01    0.0     0.00000104      -149.9730269886 -3.73E-09
   181 OT DIIS     0.80E-01    0.0     0.00000092      -149.9730269990 -1.04E-08

  *** SCF run converged in   181 steps ***


  Core-core repulsion energy [eV]:                          16801.27289076846137
  Core Hamiltonian energy [eV]:                             -5750.20561758734948
  Two-electron integral energy [eV]:                       -29448.80635429183167
  Electronic energy [eV]:                                  -20474.60879473326713
  QM/MM Electrostatic energy:                                 -14.98041055106997

  Total energy [eV]:                                        -4080.97360579877613

  Atomic reference energy [eV]:                              3689.50128793716158
  Heat of formation [kcal/mol]:                             -9027.56682616456783

  outer SCF iter =    1 RMS gradient =   0.92E-06 energy =       -149.9730269990
  outer SCF loop converged in   1 iterations or  181 steps


 ENERGY| Total FORCE_EVAL ( QMMM ) energy (a.u.):           1576.198789386438193


 *******************************************************************************
 ENSEMBLE TYPE                =                                            NPT_I
 STEP NUMBER                  =                                               66
 TIME [fs]                    =                                        33.000000
 CONSERVED QUANTITY [hartree] =                               0.218291058116E+08

                                              INSTANTANEOUS             AVERAGES
 CPU TIME [s]                 =                        5.43                 2.07
 ENERGY DRIFT PER ATOM [K]    =          0.749135173172E+08   0.113535815340E+07
 POTENTIAL ENERGY[hartree]    =          0.157619878939E+04  -0.584025766909E+03
 TOTAL KINETIC ENERGY[hartree]=          0.129753165699E+08   0.196800909903E+06
 QM KINETIC ENERGY[hartree]   =          0.900706715470E+06   0.136845585364E+05
 TOTAL TEMPERATURE[K]         =                29685565.914           450250.778
 QM TEMPERATURE[K]            =              8618798361.859        130946565.259
 PRESSURE [bar]               =          0.347676754138E+09   0.527047862521E+07
 BAROSTAT TEMP[K]             =          0.525007546535E+13   0.795467953046E+11
 VOLUME[bohr^3]               =          0.732546743117E+07   0.734696355421E+07
 CELL LNTHS[bohr]             =    0.2003196E+03   0.2084249E+03   0.1754536E+03
 AVE. CELL LNTHS[bohr]        =    0.2005149E+03   0.2086282E+03   0.1756247E+03
 *******************************************************************************


  Translating the system in order to center the QM fragment in the QM box.
ip, j, pos, lat_pos      1     1   159.06104   251.08689   243.41442     2.10429

 *******************************************************************************
 *   ___                                                                       *
 *  /   \                                                                      *
 * [ABORT]                                                                     *
 *  \___/   QM/MM QM atoms must be fully contained in the same image of the QM *
 *    |                box - No wrapping of coordinates is allowed!            *
 *  O/|                                                                        *
 * /| |                                                                        *
 * / \                                                        qmmm_force.F:141 *
 *******************************************************************************


 ===== Routine Calling Stack ===== 

            3 velocity_verlet
            2 qs_mol_dyn_low
            1 CP2K
