      24
 i =        2, E =         0.0000537963
  O         2.3550746800       -0.0000751470       -2.0720103683
  O         3.3607306079        0.0000095998        0.1785582282
  S         2.1762593707       -0.0000195208       -0.6427385235
  H         0.0393688173       -1.3170680300       -2.2624717058
  H         0.0394362303        1.3170582465       -2.2624721280
  H        -4.3227640509       -0.8932136741        0.1677543880
  H        -4.3227851308        0.8932800867        0.1676944297
  H        -4.5797799121       -0.0000214603       -1.3556846735
 Cl        -0.3854630653        1.6085240567        2.2862241656
 Cl        -0.3854550945       -1.6085238612        2.2862479726
 Cl         1.0905271256       -2.8861881814       -0.2218604926
 Cl         1.0906743171        2.8861890785       -0.2217705587
  C         0.3298597142        0.7077905693        1.1078000504
  C         0.3298556931       -0.7078001403        1.1078163629
  C         0.9488182961       -1.2392979006       -0.0313775884
  C        -0.5042379193       -0.7018864260       -1.5311897413
  C        -0.5042345177        0.7019483261       -1.5311852866
  C         0.9488247661        1.2392743940       -0.0314027216
  N        -2.5807494992        0.0000245443       -0.5999467898
  C        -1.8361710233        1.1754706833       -1.0152139180
  O        -2.2724042542        2.3028951533       -0.9355473635
  C        -1.8361413124       -1.1754124150       -1.0151679320
  O        -2.2722814117       -2.3028692007       -0.9354087281
  C        -4.0352774270        0.0000172189       -0.4011900776
